t 1.25156 /NodeList/0/DeviceList/0/$ns3::WifiNetDevice/Phy/State/Tx DsssRate11Mbps ns3::WifiMacHeader (CTL_CTS Duration/ID=462us, RA=00:00:00:00:00:03) ns3::WifiMacTrailer ()
r 1.25176 DsssRate11Mbps/NodeList/2/DeviceList/0/$ns3::WifiNetDevice/Phy/State/RxOk ns3::WifiMacHeader (CTL_CTS Duration/ID=462us, RA=00:00:00:00:00:03) ns3::WifiMacTrailer ()
t 1.25249 /NodeList/2/DeviceList/0/$ns3::WifiNetDevice/Phy/State/Tx DsssRate11Mbps ns3::WifiMacHeader (CTL_CTS Duration/ID=509us, RA=00:00:00:00:00:01) ns3::WifiMacTrailer ()
r 1.25269 DsssRate11Mbps/NodeList/0/DeviceList/0/$ns3::WifiNetDevice/Phy/State/RxOk ns3::WifiMacHeader (CTL_CTS Duration/ID=509us, RA=00:00:00:00:00:01) ns3::WifiMacTrailer ()
r 1.25269 DsssRate11Mbps/NodeList/1/DeviceList/0/$ns3::WifiNetDevice/Phy/State/RxOk ns3::WifiMacHeader (CTL_CTS Duration/ID=509us, RA=00:00:00:00:00:01) ns3::WifiMacTrailer ()
t 1.25456 /NodeList/1/DeviceList/0/$ns3::WifiNetDevice/Phy/State/Tx DsssRate11Mbps ns3::WifiMacHeader (CTL_CTS Duration/ID=462us, RA=00:00:00:00:00:03) ns3::WifiMacTrailer ()
r 1.25476 DsssRate11Mbps/NodeList/2/DeviceList/0/$ns3::WifiNetDevice/Phy/State/RxOk ns3::WifiMacHeader (CTL_CTS Duration/ID=462us, RA=00:00:00:00:00:03) ns3::WifiMacTrailer ()
t 1.25565 /NodeList/2/DeviceList/0/$ns3::WifiNetDevice/Phy/State/Tx DsssRate11Mbps ns3::WifiMacHeader (CTL_CTS Duration/ID=509us, RA=00:00:00:00:00:02) ns3::WifiMacTrailer ()
r 1.25585 DsssRate11Mbps/NodeList/0/DeviceList/0/$ns3::WifiNetDevice/Phy/State/RxOk ns3::WifiMacHeader (CTL_CTS Duration/ID=509us, RA=00:00:00:00:00:02) ns3::WifiMacTrailer ()
r 1.25585 DsssRate11Mbps/NodeList/1/DeviceList/0/$ns3::WifiNetDevice/Phy/State/RxOk ns3::WifiMacHeader (CTL_CTS Duration/ID=509us, RA=00:00:00:00:00:02) ns3::WifiMacTrailer ()
t 1.50115 /NodeList/2/DeviceList/0/$ns3::WifiNetDevice/Phy/State/Tx DsssRate11Mbps ns3::WifiMacHeader (CTL_CTS Duration/ID=509us, RA=00:00:00:00:00:02) ns3::WifiMacTrailer ()
r 1.50135 DsssRate11Mbps/NodeList/0/DeviceList/0/$ns3::WifiNetDevice/Phy/State/RxOk ns3::WifiMacHeader (CTL_CTS Duration/ID=509us, RA=00:00:00:00:00:02) ns3::WifiMacTrailer ()
r 1.50135 DsssRate11Mbps/NodeList/1/DeviceList/0/$ns3::WifiNetDevice/Phy/State/RxOk ns3::WifiMacHeader (CTL_CTS Duration/ID=509us, RA=00:00:00:00:00:02) ns3::WifiMacTrailer ()
t 1.50267 /NodeList/2/DeviceList/0/$ns3::WifiNetDevice/Phy/State/Tx DsssRate11Mbps ns3::WifiMacHeader (CTL_CTS Duration/ID=509us, RA=00:00:00:00:00:01) ns3::WifiMacTrailer ()
r 1.50287 DsssRate11Mbps/NodeList/0/DeviceList/0/$ns3::WifiNetDevice/Phy/State/RxOk ns3::WifiMacHeader (CTL_CTS Duration/ID=509us, RA=00:00:00:00:00:01) ns3::WifiMacTrailer ()
r 1.50287 DsssRate11Mbps/NodeList/1/DeviceList/0/$ns3::WifiNetDevice/Phy/State/RxOk ns3::WifiMacHeader (CTL_CTS Duration/ID=509us, RA=00:00:00:00:00:01) ns3::WifiMacTrailer ()
t 1.75153 /NodeList/2/DeviceList/0/$ns3::WifiNetDevice/Phy/State/Tx DsssRate11Mbps ns3::WifiMacHeader (CTL_CTS Duration/ID=509us, RA=00:00:00:00:00:01) ns3::WifiMacTrailer ()
r 1.75173 DsssRate11Mbps/NodeList/0/DeviceList/0/$ns3::WifiNetDevice/Phy/State/RxOk ns3::WifiMacHeader (CTL_CTS Duration/ID=509us, RA=00:00:00:00:00:01) ns3::WifiMacTrailer ()
r 1.75173 DsssRate11Mbps/NodeList/1/DeviceList/0/$ns3::WifiNetDevice/Phy/State/RxOk ns3::WifiMacHeader (CTL_CTS Duration/ID=509us, RA=00:00:00:00:00:01) ns3::WifiMacTrailer ()
t 1.75261 /NodeList/2/DeviceList/0/$ns3::WifiNetDevice/Phy/State/Tx DsssRate11Mbps ns3::WifiMacHeader (CTL_CTS Duration/ID=509us, RA=00:00:00:00:00:02) ns3::WifiMacTrailer ()
r 1.75281 DsssRate11Mbps/NodeList/0/DeviceList/0/$ns3::WifiNetDevice/Phy/State/RxOk ns3::WifiMacHeader (CTL_CTS Duration/ID=509us, RA=00:00:00:00:00:02) ns3::WifiMacTrailer ()
r 1.75281 DsssRate11Mbps/NodeList/1/DeviceList/0/$ns3::WifiNetDevice/Phy/State/RxOk ns3::WifiMacHeader (CTL_CTS Duration/ID=509us, RA=00:00:00:00:00:02) ns3::WifiMacTrailer ()
t 2.00089 /NodeList/2/DeviceList/0/$ns3::WifiNetDevice/Phy/State/Tx DsssRate11Mbps ns3::WifiMacHeader (CTL_CTS Duration/ID=509us, RA=00:00:00:00:00:01) ns3::WifiMacTrailer ()
r 2.00109 DsssRate11Mbps/NodeList/0/DeviceList/0/$ns3::WifiNetDevice/Phy/State/RxOk ns3::WifiMacHeader (CTL_CTS Duration/ID=509us, RA=00:00:00:00:00:01) ns3::WifiMacTrailer ()
r 2.00109 DsssRate11Mbps/NodeList/1/DeviceList/0/$ns3::WifiNetDevice/Phy/State/RxOk ns3::WifiMacHeader (CTL_CTS Duration/ID=509us, RA=00:00:00:00:00:01) ns3::WifiMacTrailer ()
t 2.00225 /NodeList/2/DeviceList/0/$ns3::WifiNetDevice/Phy/State/Tx DsssRate11Mbps ns3::WifiMacHeader (CTL_CTS Duration/ID=509us, RA=00:00:00:00:00:02) ns3::WifiMacTrailer ()
r 2.00245 DsssRate11Mbps/NodeList/0/DeviceList/0/$ns3::WifiNetDevice/Phy/State/RxOk ns3::WifiMacHeader (CTL_CTS Duration/ID=509us, RA=00:00:00:00:00:02) ns3::WifiMacTrailer ()
r 2.00245 DsssRate11Mbps/NodeList/1/DeviceList/0/$ns3::WifiNetDevice/Phy/State/RxOk ns3::WifiMacHeader (CTL_CTS Duration/ID=509us, RA=00:00:00:00:00:02) ns3::WifiMacTrailer ()
t 2.25097 /NodeList/2/DeviceList/0/$ns3::WifiNetDevice/Phy/State/Tx DsssRate11Mbps ns3::WifiMacHeader (CTL_CTS Duration/ID=509us, RA=00:00:00:00:00:02) ns3::WifiMacTrailer ()
r 2.25117 DsssRate11Mbps/NodeList/0/DeviceList/0/$ns3::WifiNetDevice/Phy/State/RxOk ns3::WifiMacHeader (CTL_CTS Duration/ID=509us, RA=00:00:00:00:00:02) ns3::WifiMacTrailer ()
r 2.25117 DsssRate11Mbps/NodeList/1/DeviceList/0/$ns3::WifiNetDevice/Phy/State/RxOk ns3::WifiMacHeader (CTL_CTS Duration/ID=509us, RA=00:00:00:00:00:02) ns3::WifiMacTrailer ()
t 2.25259 /NodeList/2/DeviceList/0/$ns3::WifiNetDevice/Phy/State/Tx DsssRate11Mbps ns3::WifiMacHeader (CTL_CTS Duration/ID=509us, RA=00:00:00:00:00:01) ns3::WifiMacTrailer ()
r 2.25279 DsssRate11Mbps/NodeList/0/DeviceList/0/$ns3::WifiNetDevice/Phy/State/RxOk ns3::WifiMacHeader (CTL_CTS Duration/ID=509us, RA=00:00:00:00:00:01) ns3::WifiMacTrailer ()
r 2.25279 DsssRate11Mbps/NodeList/1/DeviceList/0/$ns3::WifiNetDevice/Phy/State/RxOk ns3::WifiMacHeader (CTL_CTS Duration/ID=509us, RA=00:00:00:00:00:01) ns3::WifiMacTrailer ()
t 2.50103 /NodeList/2/DeviceList/0/$ns3::WifiNetDevice/Phy/State/Tx DsssRate11Mbps ns3::WifiMacHeader (CTL_CTS Duration/ID=509us, RA=00:00:00:00:00:02) ns3::WifiMacTrailer ()
r 2.50123 DsssRate11Mbps/NodeList/0/DeviceList/0/$ns3::WifiNetDevice/Phy/State/RxOk ns3::WifiMacHeader (CTL_CTS Duration/ID=509us, RA=00:00:00:00:00:02) ns3::WifiMacTrailer ()
r 2.50123 DsssRate11Mbps/NodeList/1/DeviceList/0/$ns3::WifiNetDevice/Phy/State/RxOk ns3::WifiMacHeader (CTL_CTS Duration/ID=509us, RA=00:00:00:00:00:02) ns3::WifiMacTrailer ()
t 2.50237 /NodeList/2/DeviceList/0/$ns3::WifiNetDevice/Phy/State/Tx DsssRate11Mbps ns3::WifiMacHeader (CTL_CTS Duration/ID=509us, RA=00:00:00:00:00:01) ns3::WifiMacTrailer ()
r 2.50257 DsssRate11Mbps/NodeList/0/DeviceList/0/$ns3::WifiNetDevice/Phy/State/RxOk ns3::WifiMacHeader (CTL_CTS Duration/ID=509us, RA=00:00:00:00:00:01) ns3::WifiMacTrailer ()
r 2.50257 DsssRate11Mbps/NodeList/1/DeviceList/0/$ns3::WifiNetDevice/Phy/State/RxOk ns3::WifiMacHeader (CTL_CTS Duration/ID=509us, RA=00:00:00:00:00:01) ns3::WifiMacTrailer ()
t 2.75081 /NodeList/2/DeviceList/0/$ns3::WifiNetDevice/Phy/State/Tx DsssRate11Mbps ns3::WifiMacHeader (CTL_CTS Duration/ID=509us, RA=00:00:00:00:00:02) ns3::WifiMacTrailer ()
r 2.75101 DsssRate11Mbps/NodeList/0/DeviceList/0/$ns3::WifiNetDevice/Phy/State/RxOk ns3::WifiMacHeader (CTL_CTS Duration/ID=509us, RA=00:00:00:00:00:02) ns3::WifiMacTrailer ()
r 2.75101 DsssRate11Mbps/NodeList/1/DeviceList/0/$ns3::WifiNetDevice/Phy/State/RxOk ns3::WifiMacHeader (CTL_CTS Duration/ID=509us, RA=00:00:00:00:00:02) ns3::WifiMacTrailer ()
t 2.75233 /NodeList/2/DeviceList/0/$ns3::WifiNetDevice/Phy/State/Tx DsssRate11Mbps ns3::WifiMacHeader (CTL_CTS Duration/ID=509us, RA=00:00:00:00:00:01) ns3::WifiMacTrailer ()
r 2.75253 DsssRate11Mbps/NodeList/0/DeviceList/0/$ns3::WifiNetDevice/Phy/State/RxOk ns3::WifiMacHeader (CTL_CTS Duration/ID=509us, RA=00:00:00:00:00:01) ns3::WifiMacTrailer ()
r 2.75253 DsssRate11Mbps/NodeList/1/DeviceList/0/$ns3::WifiNetDevice/Phy/State/RxOk ns3::WifiMacHeader (CTL_CTS Duration/ID=509us, RA=00:00:00:00:00:01) ns3::WifiMacTrailer ()
t 3.00239 /NodeList/2/DeviceList/0/$ns3::WifiNetDevice/Phy/State/Tx DsssRate11Mbps ns3::WifiMacHeader (CTL_CTS Duration/ID=509us, RA=00:00:00:00:00:02) ns3::WifiMacTrailer ()
r 3.00259 DsssRate11Mbps/NodeList/0/DeviceList/0/$ns3::WifiNetDevice/Phy/State/RxOk ns3::WifiMacHeader (CTL_CTS Duration/ID=509us, RA=00:00:00:00:00:02) ns3::WifiMacTrailer ()
r 3.00259 DsssRate11Mbps/NodeList/1/DeviceList/0/$ns3::WifiNetDevice/Phy/State/RxOk ns3::WifiMacHeader (CTL_CTS Duration/ID=509us, RA=00:00:00:00:00:02) ns3::WifiMacTrailer ()
t 3.00449 /NodeList/2/DeviceList/0/$ns3::WifiNetDevice/Phy/State/Tx DsssRate11Mbps ns3::WifiMacHeader (CTL_CTS Duration/ID=509us, RA=00:00:00:00:00:01) ns3::WifiMacTrailer ()
r 3.00469 DsssRate11Mbps/NodeList/0/DeviceList/0/$ns3::WifiNetDevice/Phy/State/RxOk ns3::WifiMacHeader (CTL_CTS Duration/ID=509us, RA=00:00:00:00:00:01) ns3::WifiMacTrailer ()
r 3.00469 DsssRate11Mbps/NodeList/1/DeviceList/0/$ns3::WifiNetDevice/Phy/State/RxOk ns3::WifiMacHeader (CTL_CTS Duration/ID=509us, RA=00:00:00:00:00:01) ns3::WifiMacTrailer ()
t 3.25183 /NodeList/2/DeviceList/0/$ns3::WifiNetDevice/Phy/State/Tx DsssRate11Mbps ns3::WifiMacHeader (CTL_CTS Duration/ID=509us, RA=00:00:00:00:00:02) ns3::WifiMacTrailer ()
r 3.25203 DsssRate11Mbps/NodeList/0/DeviceList/0/$ns3::WifiNetDevice/Phy/State/RxOk ns3::WifiMacHeader (CTL_CTS Duration/ID=509us, RA=00:00:00:00:00:02) ns3::WifiMacTrailer ()
r 3.25203 DsssRate11Mbps/NodeList/1/DeviceList/0/$ns3::WifiNetDevice/Phy/State/RxOk ns3::WifiMacHeader (CTL_CTS Duration/ID=509us, RA=00:00:00:00:00:02) ns3::WifiMacTrailer ()
t 3.25453 /NodeList/2/DeviceList/0/$ns3::WifiNetDevice/Phy/State/Tx DsssRate11Mbps ns3::WifiMacHeader (CTL_CTS Duration/ID=509us, RA=00:00:00:00:00:01) ns3::WifiMacTrailer ()
r 3.25473 DsssRate11Mbps/NodeList/0/DeviceList/0/$ns3::WifiNetDevice/Phy/State/RxOk ns3::WifiMacHeader (CTL_CTS Duration/ID=509us, RA=00:00:00:00:00:01) ns3::WifiMacTrailer ()
r 3.25473 DsssRate11Mbps/NodeList/1/DeviceList/0/$ns3::WifiNetDevice/Phy/State/RxOk ns3::WifiMacHeader (CTL_CTS Duration/ID=509us, RA=00:00:00:00:00:01) ns3::WifiMacTrailer ()
t 3.50213 /NodeList/2/DeviceList/0/$ns3::WifiNetDevice/Phy/State/Tx DsssRate11Mbps ns3::WifiMacHeader (CTL_CTS Duration/ID=509us, RA=00:00:00:00:00:01) ns3::WifiMacTrailer ()
r 3.50233 DsssRate11Mbps/NodeList/0/DeviceList/0/$ns3::WifiNetDevice/Phy/State/RxOk ns3::WifiMacHeader (CTL_CTS Duration/ID=509us, RA=00:00:00:00:00:01) ns3::WifiMacTrailer ()
r 3.50233 DsssRate11Mbps/NodeList/1/DeviceList/0/$ns3::WifiNetDevice/Phy/State/RxOk ns3::WifiMacHeader (CTL_CTS Duration/ID=509us, RA=00:00:00:00:00:01) ns3::WifiMacTrailer ()
t 3.50441 /NodeList/2/DeviceList/0/$ns3::WifiNetDevice/Phy/State/Tx DsssRate11Mbps ns3::WifiMacHeader (CTL_CTS Duration/ID=509us, RA=00:00:00:00:00:02) ns3::WifiMacTrailer ()
r 3.50461 DsssRate11Mbps/NodeList/0/DeviceList/0/$ns3::WifiNetDevice/Phy/State/RxOk ns3::WifiMacHeader (CTL_CTS Duration/ID=509us, RA=00:00:00:00:00:02) ns3::WifiMacTrailer ()
r 3.50461 DsssRate11Mbps/NodeList/1/DeviceList/0/$ns3::WifiNetDevice/Phy/State/RxOk ns3::WifiMacHeader (CTL_CTS Duration/ID=509us, RA=00:00:00:00:00:02) ns3::WifiMacTrailer ()
t 3.75171 /NodeList/2/DeviceList/0/$ns3::WifiNetDevice/Phy/State/Tx DsssRate11Mbps ns3::WifiMacHeader (CTL_CTS Duration/ID=509us, RA=00:00:00:00:00:02) ns3::WifiMacTrailer ()
r 3.75191 DsssRate11Mbps/NodeList/0/DeviceList/0/$ns3::WifiNetDevice/Phy/State/RxOk ns3::WifiMacHeader (CTL_CTS Duration/ID=509us, RA=00:00:00:00:00:02) ns3::WifiMacTrailer ()
r 3.75191 DsssRate11Mbps/NodeList/1/DeviceList/0/$ns3::WifiNetDevice/Phy/State/RxOk ns3::WifiMacHeader (CTL_CTS Duration/ID=509us, RA=00:00:00:00:00:02) ns3::WifiMacTrailer ()
t 3.75433 /NodeList/2/DeviceList/0/$ns3::WifiNetDevice/Phy/State/Tx DsssRate11Mbps ns3::WifiMacHeader (CTL_CTS Duration/ID=509us, RA=00:00:00:00:00:01) ns3::WifiMacTrailer ()
r 3.75453 DsssRate11Mbps/NodeList/0/DeviceList/0/$ns3::WifiNetDevice/Phy/State/RxOk ns3::WifiMacHeader (CTL_CTS Duration/ID=509us, RA=00:00:00:00:00:01) ns3::WifiMacTrailer ()
r 3.75453 DsssRate11Mbps/NodeList/1/DeviceList/0/$ns3::WifiNetDevice/Phy/State/RxOk ns3::WifiMacHeader (CTL_CTS Duration/ID=509us, RA=00:00:00:00:00:01) ns3::WifiMacTrailer ()
t 4.00375 /NodeList/2/DeviceList/0/$ns3::WifiNetDevice/Phy/State/Tx DsssRate11Mbps ns3::WifiMacHeader (CTL_CTS Duration/ID=509us, RA=00:00:00:00:00:01) ns3::WifiMacTrailer ()
r 4.00395 DsssRate11Mbps/NodeList/0/DeviceList/0/$ns3::WifiNetDevice/Phy/State/RxOk ns3::WifiMacHeader (CTL_CTS Duration/ID=509us, RA=00:00:00:00:00:01) ns3::WifiMacTrailer ()
r 4.00395 DsssRate11Mbps/NodeList/1/DeviceList/0/$ns3::WifiNetDevice/Phy/State/RxOk ns3::WifiMacHeader (CTL_CTS Duration/ID=509us, RA=00:00:00:00:00:01) ns3::WifiMacTrailer ()
t 4.00527 /NodeList/2/DeviceList/0/$ns3::WifiNetDevice/Phy/State/Tx DsssRate11Mbps ns3::WifiMacHeader (CTL_CTS Duration/ID=509us, RA=00:00:00:00:00:02) ns3::WifiMacTrailer ()
r 4.00547 DsssRate11Mbps/NodeList/0/DeviceList/0/$ns3::WifiNetDevice/Phy/State/RxOk ns3::WifiMacHeader (CTL_CTS Duration/ID=509us, RA=00:00:00:00:00:02) ns3::WifiMacTrailer ()
r 4.00547 DsssRate11Mbps/NodeList/1/DeviceList/0/$ns3::WifiNetDevice/Phy/State/RxOk ns3::WifiMacHeader (CTL_CTS Duration/ID=509us, RA=00:00:00:00:00:02) ns3::WifiMacTrailer ()
t 4.25399 /NodeList/2/DeviceList/0/$ns3::WifiNetDevice/Phy/State/Tx DsssRate11Mbps ns3::WifiMacHeader (CTL_CTS Duration/ID=509us, RA=00:00:00:00:00:02) ns3::WifiMacTrailer ()
r 4.25419 DsssRate11Mbps/NodeList/0/DeviceList/0/$ns3::WifiNetDevice/Phy/State/RxOk ns3::WifiMacHeader (CTL_CTS Duration/ID=509us, RA=00:00:00:00:00:02) ns3::WifiMacTrailer ()
r 4.25419 DsssRate11Mbps/NodeList/1/DeviceList/0/$ns3::WifiNetDevice/Phy/State/RxOk ns3::WifiMacHeader (CTL_CTS Duration/ID=509us, RA=00:00:00:00:00:02) ns3::WifiMacTrailer ()
t 4.25551 /NodeList/2/DeviceList/0/$ns3::WifiNetDevice/Phy/State/Tx DsssRate11Mbps ns3::WifiMacHeader (CTL_CTS Duration/ID=509us, RA=00:00:00:00:00:01) ns3::WifiMacTrailer ()
r 4.25571 DsssRate11Mbps/NodeList/0/DeviceList/0/$ns3::WifiNetDevice/Phy/State/RxOk ns3::WifiMacHeader (CTL_CTS Duration/ID=509us, RA=00:00:00:00:00:01) ns3::WifiMacTrailer ()
r 4.25571 DsssRate11Mbps/NodeList/1/DeviceList/0/$ns3::WifiNetDevice/Phy/State/RxOk ns3::WifiMacHeader (CTL_CTS Duration/ID=509us, RA=00:00:00:00:00:01) ns3::WifiMacTrailer ()
t 4.50097 /NodeList/2/DeviceList/0/$ns3::WifiNetDevice/Phy/State/Tx DsssRate11Mbps ns3::WifiMacHeader (CTL_CTS Duration/ID=509us, RA=00:00:00:00:00:02) ns3::WifiMacTrailer ()
r 4.50117 DsssRate11Mbps/NodeList/0/DeviceList/0/$ns3::WifiNetDevice/Phy/State/RxOk ns3::WifiMacHeader (CTL_CTS Duration/ID=509us, RA=00:00:00:00:00:02) ns3::WifiMacTrailer ()
r 4.50117 DsssRate11Mbps/NodeList/1/DeviceList/0/$ns3::WifiNetDevice/Phy/State/RxOk ns3::WifiMacHeader (CTL_CTS Duration/ID=509us, RA=00:00:00:00:00:02) ns3::WifiMacTrailer ()
t 4.50207 /NodeList/2/DeviceList/0/$ns3::WifiNetDevice/Phy/State/Tx DsssRate11Mbps ns3::WifiMacHeader (CTL_CTS Duration/ID=509us, RA=00:00:00:00:00:01) ns3::WifiMacTrailer ()
r 4.50227 DsssRate11Mbps/NodeList/0/DeviceList/0/$ns3::WifiNetDevice/Phy/State/RxOk ns3::WifiMacHeader (CTL_CTS Duration/ID=509us, RA=00:00:00:00:00:01) ns3::WifiMacTrailer ()
r 4.50227 DsssRate11Mbps/NodeList/1/DeviceList/0/$ns3::WifiNetDevice/Phy/State/RxOk ns3::WifiMacHeader (CTL_CTS Duration/ID=509us, RA=00:00:00:00:00:01) ns3::WifiMacTrailer ()
t 4.75107 /NodeList/2/DeviceList/0/$ns3::WifiNetDevice/Phy/State/Tx DsssRate11Mbps ns3::WifiMacHeader (CTL_CTS Duration/ID=509us, RA=00:00:00:00:00:01) ns3::WifiMacTrailer ()
r 4.75127 DsssRate11Mbps/NodeList/0/DeviceList/0/$ns3::WifiNetDevice/Phy/State/RxOk ns3::WifiMacHeader (CTL_CTS Duration/ID=509us, RA=00:00:00:00:00:01) ns3::WifiMacTrailer ()
r 4.75127 DsssRate11Mbps/NodeList/1/DeviceList/0/$ns3::WifiNetDevice/Phy/State/RxOk ns3::WifiMacHeader (CTL_CTS Duration/ID=509us, RA=00:00:00:00:00:01) ns3::WifiMacTrailer ()
t 4.75207 /NodeList/2/DeviceList/0/$ns3::WifiNetDevice/Phy/State/Tx DsssRate11Mbps ns3::WifiMacHeader (CTL_CTS Duration/ID=509us, RA=00:00:00:00:00:02) ns3::WifiMacTrailer ()
r 4.75227 DsssRate11Mbps/NodeList/0/DeviceList/0/$ns3::WifiNetDevice/Phy/State/RxOk ns3::WifiMacHeader (CTL_CTS Duration/ID=509us, RA=00:00:00:00:00:02) ns3::WifiMacTrailer ()
r 4.75227 DsssRate11Mbps/NodeList/1/DeviceList/0/$ns3::WifiNetDevice/Phy/State/RxOk ns3::WifiMacHeader (CTL_CTS Duration/ID=509us, RA=00:00:00:00:00:02) ns3::WifiMacTrailer ()
t 5.00081 /NodeList/2/DeviceList/0/$ns3::WifiNetDevice/Phy/State/Tx DsssRate11Mbps ns3::WifiMacHeader (CTL_CTS Duration/ID=509us, RA=00:00:00:00:00:02) ns3::WifiMacTrailer ()
r 5.00101 DsssRate11Mbps/NodeList/0/DeviceList/0/$ns3::WifiNetDevice/Phy/State/RxOk ns3::WifiMacHeader (CTL_CTS Duration/ID=509us, RA=00:00:00:00:00:02) ns3::WifiMacTrailer ()
r 5.00101 DsssRate11Mbps/NodeList/1/DeviceList/0/$ns3::WifiNetDevice/Phy/State/RxOk ns3::WifiMacHeader (CTL_CTS Duration/ID=509us, RA=00:00:00:00:00:02) ns3::WifiMacTrailer ()
t 5.00219 /NodeList/2/DeviceList/0/$ns3::WifiNetDevice/Phy/State/Tx DsssRate11Mbps ns3::WifiMacHeader (CTL_CTS Duration/ID=509us, RA=00:00:00:00:00:01) ns3::WifiMacTrailer ()
r 5.00239 DsssRate11Mbps/NodeList/0/DeviceList/0/$ns3::WifiNetDevice/Phy/State/RxOk ns3::WifiMacHeader (CTL_CTS Duration/ID=509us, RA=00:00:00:00:00:01) ns3::WifiMacTrailer ()
r 5.00239 DsssRate11Mbps/NodeList/1/DeviceList/0/$ns3::WifiNetDevice/Phy/State/RxOk ns3::WifiMacHeader (CTL_CTS Duration/ID=509us, RA=00:00:00:00:00:01) ns3::WifiMacTrailer ()
t 5.25145 /NodeList/2/DeviceList/0/$ns3::WifiNetDevice/Phy/State/Tx DsssRate11Mbps ns3::WifiMacHeader (CTL_CTS Duration/ID=509us, RA=00:00:00:00:00:01) ns3::WifiMacTrailer ()
t 5.25448 /NodeList/2/DeviceList/0/$ns3::WifiNetDevice/Phy/State/Tx DsssRate11Mbps ns3::WifiMacHeader (CTL_CTS Duration/ID=509us, RA=00:00:00:00:00:02) ns3::WifiMacTrailer ()
r 5.25469 DsssRate11Mbps/NodeList/0/DeviceList/0/$ns3::WifiNetDevice/Phy/State/RxOk ns3::WifiMacHeader (CTL_CTS Duration/ID=509us, RA=00:00:00:00:00:02) ns3::WifiMacTrailer ()
r 5.25469 DsssRate11Mbps/NodeList/1/DeviceList/0/$ns3::WifiNetDevice/Phy/State/RxOk ns3::WifiMacHeader (CTL_CTS Duration/ID=509us, RA=00:00:00:00:00:02) ns3::WifiMacTrailer ()
t 5.25936 /NodeList/2/DeviceList/0/$ns3::WifiNetDevice/Phy/State/Tx DsssRate11Mbps ns3::WifiMacHeader (CTL_CTS Duration/ID=509us, RA=00:00:00:00:00:01) ns3::WifiMacTrailer ()
r 5.25957 DsssRate11Mbps/NodeList/0/DeviceList/0/$ns3::WifiNetDevice/Phy/State/RxOk ns3::WifiMacHeader (CTL_CTS Duration/ID=509us, RA=00:00:00:00:00:01) ns3::WifiMacTrailer ()
r 5.25957 DsssRate11Mbps/NodeList/1/DeviceList/0/$ns3::WifiNetDevice/Phy/State/RxOk ns3::WifiMacHeader (CTL_CTS Duration/ID=509us, RA=00:00:00:00:00:01) ns3::WifiMacTrailer ()
t 5.50129 /NodeList/2/DeviceList/0/$ns3::WifiNetDevice/Phy/State/Tx DsssRate11Mbps ns3::WifiMacHeader (CTL_CTS Duration/ID=509us, RA=00:00:00:00:00:02) ns3::WifiMacTrailer ()
r 5.50149 DsssRate11Mbps/NodeList/0/DeviceList/0/$ns3::WifiNetDevice/Phy/State/RxOk ns3::WifiMacHeader (CTL_CTS Duration/ID=509us, RA=00:00:00:00:00:02) ns3::WifiMacTrailer ()
r 5.50149 DsssRate11Mbps/NodeList/1/DeviceList/0/$ns3::WifiNetDevice/Phy/State/RxOk ns3::WifiMacHeader (CTL_CTS Duration/ID=509us, RA=00:00:00:00:00:02) ns3::WifiMacTrailer ()
t 5.50259 /NodeList/2/DeviceList/0/$ns3::WifiNetDevice/Phy/State/Tx DsssRate11Mbps ns3::WifiMacHeader (CTL_CTS Duration/ID=509us, RA=00:00:00:00:00:01) ns3::WifiMacTrailer ()
r 5.50279 DsssRate11Mbps/NodeList/0/DeviceList/0/$ns3::WifiNetDevice/Phy/State/RxOk ns3::WifiMacHeader (CTL_CTS Duration/ID=509us, RA=00:00:00:00:00:01) ns3::WifiMacTrailer ()
r 5.50279 DsssRate11Mbps/NodeList/1/DeviceList/0/$ns3::WifiNetDevice/Phy/State/RxOk ns3::WifiMacHeader (CTL_CTS Duration/ID=509us, RA=00:00:00:00:00:01) ns3::WifiMacTrailer ()
t 5.75087 /NodeList/2/DeviceList/0/$ns3::WifiNetDevice/Phy/State/Tx DsssRate11Mbps ns3::WifiMacHeader (CTL_CTS Duration/ID=509us, RA=00:00:00:00:00:01) ns3::WifiMacTrailer ()
r 5.75107 DsssRate11Mbps/NodeList/0/DeviceList/0/$ns3::WifiNetDevice/Phy/State/RxOk ns3::WifiMacHeader (CTL_CTS Duration/ID=509us, RA=00:00:00:00:00:01) ns3::WifiMacTrailer ()
r 5.75107 DsssRate11Mbps/NodeList/1/DeviceList/0/$ns3::WifiNetDevice/Phy/State/RxOk ns3::WifiMacHeader (CTL_CTS Duration/ID=509us, RA=00:00:00:00:00:01) ns3::WifiMacTrailer ()
t 5.75243 /NodeList/2/DeviceList/0/$ns3::WifiNetDevice/Phy/State/Tx DsssRate11Mbps ns3::WifiMacHeader (CTL_CTS Duration/ID=509us, RA=00:00:00:00:00:02) ns3::WifiMacTrailer ()
r 5.75263 DsssRate11Mbps/NodeList/0/DeviceList/0/$ns3::WifiNetDevice/Phy/State/RxOk ns3::WifiMacHeader (CTL_CTS Duration/ID=509us, RA=00:00:00:00:00:02) ns3::WifiMacTrailer ()
r 5.75263 DsssRate11Mbps/NodeList/1/DeviceList/0/$ns3::WifiNetDevice/Phy/State/RxOk ns3::WifiMacHeader (CTL_CTS Duration/ID=509us, RA=00:00:00:00:00:02) ns3::WifiMacTrailer ()
t 6.00652 /NodeList/2/DeviceList/0/$ns3::WifiNetDevice/Phy/State/Tx DsssRate11Mbps ns3::WifiMacHeader (CTL_CTS Duration/ID=509us, RA=00:00:00:00:00:02) ns3::WifiMacTrailer ()
r 6.00673 DsssRate11Mbps/NodeList/0/DeviceList/0/$ns3::WifiNetDevice/Phy/State/RxOk ns3::WifiMacHeader (CTL_CTS Duration/ID=509us, RA=00:00:00:00:00:02) ns3::WifiMacTrailer ()
r 6.00673 DsssRate11Mbps/NodeList/1/DeviceList/0/$ns3::WifiNetDevice/Phy/State/RxOk ns3::WifiMacHeader (CTL_CTS Duration/ID=509us, RA=00:00:00:00:00:02) ns3::WifiMacTrailer ()
t 6.00872 /NodeList/2/DeviceList/0/$ns3::WifiNetDevice/Phy/State/Tx DsssRate11Mbps ns3::WifiMacHeader (CTL_CTS Duration/ID=509us, RA=00:00:00:00:00:01) ns3::WifiMacTrailer ()
r 6.00893 DsssRate11Mbps/NodeList/0/DeviceList/0/$ns3::WifiNetDevice/Phy/State/RxOk ns3::WifiMacHeader (CTL_CTS Duration/ID=509us, RA=00:00:00:00:00:01) ns3::WifiMacTrailer ()
r 6.00893 DsssRate11Mbps/NodeList/1/DeviceList/0/$ns3::WifiNetDevice/Phy/State/RxOk ns3::WifiMacHeader (CTL_CTS Duration/ID=509us, RA=00:00:00:00:00:01) ns3::WifiMacTrailer ()
t 6.25133 /NodeList/2/DeviceList/0/$ns3::WifiNetDevice/Phy/State/Tx DsssRate11Mbps ns3::WifiMacHeader (CTL_CTS Duration/ID=509us, RA=00:00:00:00:00:02) ns3::WifiMacTrailer ()
r 6.25153 DsssRate11Mbps/NodeList/0/DeviceList/0/$ns3::WifiNetDevice/Phy/State/RxOk ns3::WifiMacHeader (CTL_CTS Duration/ID=509us, RA=00:00:00:00:00:02) ns3::WifiMacTrailer ()
r 6.25153 DsssRate11Mbps/NodeList/1/DeviceList/0/$ns3::WifiNetDevice/Phy/State/RxOk ns3::WifiMacHeader (CTL_CTS Duration/ID=509us, RA=00:00:00:00:00:02) ns3::WifiMacTrailer ()
t 6.25251 /NodeList/2/DeviceList/0/$ns3::WifiNetDevice/Phy/State/Tx DsssRate11Mbps ns3::WifiMacHeader (CTL_CTS Duration/ID=509us, RA=00:00:00:00:00:01) ns3::WifiMacTrailer ()
r 6.25271 DsssRate11Mbps/NodeList/0/DeviceList/0/$ns3::WifiNetDevice/Phy/State/RxOk ns3::WifiMacHeader (CTL_CTS Duration/ID=509us, RA=00:00:00:00:00:01) ns3::WifiMacTrailer ()
r 6.25271 DsssRate11Mbps/NodeList/1/DeviceList/0/$ns3::WifiNetDevice/Phy/State/RxOk ns3::WifiMacHeader (CTL_CTS Duration/ID=509us, RA=00:00:00:00:00:01) ns3::WifiMacTrailer ()
t 6.50081 /NodeList/2/DeviceList/0/$ns3::WifiNetDevice/Phy/State/Tx DsssRate11Mbps ns3::WifiMacHeader (CTL_CTS Duration/ID=509us, RA=00:00:00:00:00:02) ns3::WifiMacTrailer ()
r 6.50101 DsssRate11Mbps/NodeList/0/DeviceList/0/$ns3::WifiNetDevice/Phy/State/RxOk ns3::WifiMacHeader (CTL_CTS Duration/ID=509us, RA=00:00:00:00:00:02) ns3::WifiMacTrailer ()
r 6.50101 DsssRate11Mbps/NodeList/1/DeviceList/0/$ns3::WifiNetDevice/Phy/State/RxOk ns3::WifiMacHeader (CTL_CTS Duration/ID=509us, RA=00:00:00:00:00:02) ns3::WifiMacTrailer ()
t 6.50271 /NodeList/2/DeviceList/0/$ns3::WifiNetDevice/Phy/State/Tx DsssRate11Mbps ns3::WifiMacHeader (CTL_CTS Duration/ID=509us, RA=00:00:00:00:00:01) ns3::WifiMacTrailer ()
r 6.50291 DsssRate11Mbps/NodeList/0/DeviceList/0/$ns3::WifiNetDevice/Phy/State/RxOk ns3::WifiMacHeader (CTL_CTS Duration/ID=509us, RA=00:00:00:00:00:01) ns3::WifiMacTrailer ()
r 6.50291 DsssRate11Mbps/NodeList/1/DeviceList/0/$ns3::WifiNetDevice/Phy/State/RxOk ns3::WifiMacHeader (CTL_CTS Duration/ID=509us, RA=00:00:00:00:00:01) ns3::WifiMacTrailer ()
t 6.75133 /NodeList/2/DeviceList/0/$ns3::WifiNetDevice/Phy/State/Tx DsssRate11Mbps ns3::WifiMacHeader (CTL_CTS Duration/ID=509us, RA=00:00:00:00:00:01) ns3::WifiMacTrailer ()
r 6.75153 DsssRate11Mbps/NodeList/0/DeviceList/0/$ns3::WifiNetDevice/Phy/State/RxOk ns3::WifiMacHeader (CTL_CTS Duration/ID=509us, RA=00:00:00:00:00:01) ns3::WifiMacTrailer ()
r 6.75153 DsssRate11Mbps/NodeList/1/DeviceList/0/$ns3::WifiNetDevice/Phy/State/RxOk ns3::WifiMacHeader (CTL_CTS Duration/ID=509us, RA=00:00:00:00:00:01) ns3::WifiMacTrailer ()
t 6.75241 /NodeList/2/DeviceList/0/$ns3::WifiNetDevice/Phy/State/Tx DsssRate11Mbps ns3::WifiMacHeader (CTL_CTS Duration/ID=509us, RA=00:00:00:00:00:02) ns3::WifiMacTrailer ()
r 6.75261 DsssRate11Mbps/NodeList/0/DeviceList/0/$ns3::WifiNetDevice/Phy/State/RxOk ns3::WifiMacHeader (CTL_CTS Duration/ID=509us, RA=00:00:00:00:00:02) ns3::WifiMacTrailer ()
r 6.75261 DsssRate11Mbps/NodeList/1/DeviceList/0/$ns3::WifiNetDevice/Phy/State/RxOk ns3::WifiMacHeader (CTL_CTS Duration/ID=509us, RA=00:00:00:00:00:02) ns3::WifiMacTrailer ()
t 7.00087 /NodeList/2/DeviceList/0/$ns3::WifiNetDevice/Phy/State/Tx DsssRate11Mbps ns3::WifiMacHeader (CTL_CTS Duration/ID=509us, RA=00:00:00:00:00:02) ns3::WifiMacTrailer ()
r 7.00107 DsssRate11Mbps/NodeList/0/DeviceList/0/$ns3::WifiNetDevice/Phy/State/RxOk ns3::WifiMacHeader (CTL_CTS Duration/ID=509us, RA=00:00:00:00:00:02) ns3::WifiMacTrailer ()
r 7.00107 DsssRate11Mbps/NodeList/1/DeviceList/0/$ns3::WifiNetDevice/Phy/State/RxOk ns3::WifiMacHeader (CTL_CTS Duration/ID=509us, RA=00:00:00:00:00:02) ns3::WifiMacTrailer ()
t 7.00225 /NodeList/2/DeviceList/0/$ns3::WifiNetDevice/Phy/State/Tx DsssRate11Mbps ns3::WifiMacHeader (CTL_CTS Duration/ID=509us, RA=00:00:00:00:00:01) ns3::WifiMacTrailer ()
r 7.00245 DsssRate11Mbps/NodeList/0/DeviceList/0/$ns3::WifiNetDevice/Phy/State/RxOk ns3::WifiMacHeader (CTL_CTS Duration/ID=509us, RA=00:00:00:00:00:01) ns3::WifiMacTrailer ()
r 7.00245 DsssRate11Mbps/NodeList/1/DeviceList/0/$ns3::WifiNetDevice/Phy/State/RxOk ns3::WifiMacHeader (CTL_CTS Duration/ID=509us, RA=00:00:00:00:00:01) ns3::WifiMacTrailer ()
t 7.25225 /NodeList/2/DeviceList/0/$ns3::WifiNetDevice/Phy/State/Tx DsssRate11Mbps ns3::WifiMacHeader (CTL_CTS Duration/ID=509us, RA=00:00:00:00:00:02) ns3::WifiMacTrailer ()
r 7.25245 DsssRate11Mbps/NodeList/0/DeviceList/0/$ns3::WifiNetDevice/Phy/State/RxOk ns3::WifiMacHeader (CTL_CTS Duration/ID=509us, RA=00:00:00:00:00:02) ns3::WifiMacTrailer ()
r 7.25245 DsssRate11Mbps/NodeList/1/DeviceList/0/$ns3::WifiNetDevice/Phy/State/RxOk ns3::WifiMacHeader (CTL_CTS Duration/ID=509us, RA=00:00:00:00:00:02) ns3::WifiMacTrailer ()
t 7.25523 /NodeList/2/DeviceList/0/$ns3::WifiNetDevice/Phy/State/Tx DsssRate11Mbps ns3::WifiMacHeader (CTL_CTS Duration/ID=509us, RA=00:00:00:00:00:01) ns3::WifiMacTrailer ()
r 7.25543 DsssRate11Mbps/NodeList/0/DeviceList/0/$ns3::WifiNetDevice/Phy/State/RxOk ns3::WifiMacHeader (CTL_CTS Duration/ID=509us, RA=00:00:00:00:00:01) ns3::WifiMacTrailer ()
r 7.25543 DsssRate11Mbps/NodeList/1/DeviceList/0/$ns3::WifiNetDevice/Phy/State/RxOk ns3::WifiMacHeader (CTL_CTS Duration/ID=509us, RA=00:00:00:00:00:01) ns3::WifiMacTrailer ()
t 7.50215 /NodeList/2/DeviceList/0/$ns3::WifiNetDevice/Phy/State/Tx DsssRate11Mbps ns3::WifiMacHeader (CTL_CTS Duration/ID=509us, RA=00:00:00:00:00:01) ns3::WifiMacTrailer ()
r 7.50235 DsssRate11Mbps/NodeList/0/DeviceList/0/$ns3::WifiNetDevice/Phy/State/RxOk ns3::WifiMacHeader (CTL_CTS Duration/ID=509us, RA=00:00:00:00:00:01) ns3::WifiMacTrailer ()
r 7.50235 DsssRate11Mbps/NodeList/1/DeviceList/0/$ns3::WifiNetDevice/Phy/State/RxOk ns3::WifiMacHeader (CTL_CTS Duration/ID=509us, RA=00:00:00:00:00:01) ns3::WifiMacTrailer ()
t 7.50351 /NodeList/2/DeviceList/0/$ns3::WifiNetDevice/Phy/State/Tx DsssRate11Mbps ns3::WifiMacHeader (CTL_CTS Duration/ID=509us, RA=00:00:00:00:00:02) ns3::WifiMacTrailer ()
r 7.50371 DsssRate11Mbps/NodeList/0/DeviceList/0/$ns3::WifiNetDevice/Phy/State/RxOk ns3::WifiMacHeader (CTL_CTS Duration/ID=509us, RA=00:00:00:00:00:02) ns3::WifiMacTrailer ()
r 7.50371 DsssRate11Mbps/NodeList/1/DeviceList/0/$ns3::WifiNetDevice/Phy/State/RxOk ns3::WifiMacHeader (CTL_CTS Duration/ID=509us, RA=00:00:00:00:00:02) ns3::WifiMacTrailer ()
t 7.75099 /NodeList/2/DeviceList/0/$ns3::WifiNetDevice/Phy/State/Tx DsssRate11Mbps ns3::WifiMacHeader (CTL_CTS Duration/ID=509us, RA=00:00:00:00:00:01) ns3::WifiMacTrailer ()
r 7.75119 DsssRate11Mbps/NodeList/0/DeviceList/0/$ns3::WifiNetDevice/Phy/State/RxOk ns3::WifiMacHeader (CTL_CTS Duration/ID=509us, RA=00:00:00:00:00:01) ns3::WifiMacTrailer ()
r 7.75119 DsssRate11Mbps/NodeList/1/DeviceList/0/$ns3::WifiNetDevice/Phy/State/RxOk ns3::WifiMacHeader (CTL_CTS Duration/ID=509us, RA=00:00:00:00:00:01) ns3::WifiMacTrailer ()
t 7.75211 /NodeList/2/DeviceList/0/$ns3::WifiNetDevice/Phy/State/Tx DsssRate11Mbps ns3::WifiMacHeader (CTL_CTS Duration/ID=509us, RA=00:00:00:00:00:02) ns3::WifiMacTrailer ()
r 7.75231 DsssRate11Mbps/NodeList/0/DeviceList/0/$ns3::WifiNetDevice/Phy/State/RxOk ns3::WifiMacHeader (CTL_CTS Duration/ID=509us, RA=00:00:00:00:00:02) ns3::WifiMacTrailer ()
r 7.75231 DsssRate11Mbps/NodeList/1/DeviceList/0/$ns3::WifiNetDevice/Phy/State/RxOk ns3::WifiMacHeader (CTL_CTS Duration/ID=509us, RA=00:00:00:00:00:02) ns3::WifiMacTrailer ()
t 8.00095 /NodeList/2/DeviceList/0/$ns3::WifiNetDevice/Phy/State/Tx DsssRate11Mbps ns3::WifiMacHeader (CTL_CTS Duration/ID=509us, RA=00:00:00:00:00:01) ns3::WifiMacTrailer ()
r 8.00115 DsssRate11Mbps/NodeList/0/DeviceList/0/$ns3::WifiNetDevice/Phy/State/RxOk ns3::WifiMacHeader (CTL_CTS Duration/ID=509us, RA=00:00:00:00:00:01) ns3::WifiMacTrailer ()
r 8.00115 DsssRate11Mbps/NodeList/1/DeviceList/0/$ns3::WifiNetDevice/Phy/State/RxOk ns3::WifiMacHeader (CTL_CTS Duration/ID=509us, RA=00:00:00:00:00:01) ns3::WifiMacTrailer ()