t 0.05405 /NodeList/1/DeviceList/0/$ns3::WifiNetDevice/Phy/State/Tx DsssRate11Mbps ns3::WifiMacHeader (DATA ToDS=0, FromDS=0, MoreFrag=0, Retry=0, MoreData=0 Duration/ID=0us, DA=ff:ff:ff:ff:ff:ff, SA=00:00:00:00:00:02, BSSID=00:00:00:00:00:02, FragNumber=0, SeqNumber=0) ns3::LlcSnapHeader (type 0x800) ns3::Ipv4Header (tos 0x0 DSCP Default ECN Not-ECT ttl 1 id 0 protocol 17 offset (bytes) 0 flags [none] length: 48 10.1.1.2 > 10.1.1.255) ns3::UdpHeader (length: 28 654 > 654) ns3::aodv::TypeHeader (RREP) ns3::aodv::RrepHeader (destination: ipv4 10.1.1.2 sequence number 0 source ipv4 10.1.1.2 lifetime 2000 acknowledgment required flag 0) ns3::WifiMacTrailer ()
r 0.0543043 DsssRate11Mbps/NodeList/2/DeviceList/0/$ns3::WifiNetDevice/Phy/State/RxOk ns3::WifiMacHeader (DATA ToDS=0, FromDS=0, MoreFrag=0, Retry=0, MoreData=0 Duration/ID=0us, DA=ff:ff:ff:ff:ff:ff, SA=00:00:00:00:00:02, BSSID=00:00:00:00:00:02, FragNumber=0, SeqNumber=0) ns3::LlcSnapHeader (type 0x800) ns3::Ipv4Header (tos 0x0 DSCP Default ECN Not-ECT ttl 1 id 0 protocol 17 offset (bytes) 0 flags [none] length: 48 10.1.1.2 > 10.1.1.255) ns3::UdpHeader (length: 28 654 > 654) ns3::aodv::TypeHeader (RREP) ns3::aodv::RrepHeader (destination: ipv4 10.1.1.2 sequence number 0 source ipv4 10.1.1.2 lifetime 2000 acknowledgment required flag 0) ns3::WifiMacTrailer ()
t 0.06805 /NodeList/0/DeviceList/0/$ns3::WifiNetDevice/Phy/State/Tx DsssRate11Mbps ns3::WifiMacHeader (DATA ToDS=0, FromDS=0, MoreFrag=0, Retry=0, MoreData=0 Duration/ID=0us, DA=ff:ff:ff:ff:ff:ff, SA=00:00:00:00:00:01, BSSID=00:00:00:00:00:01, FragNumber=0, SeqNumber=0) ns3::LlcSnapHeader (type 0x800) ns3::Ipv4Header (tos 0x0 DSCP Default ECN Not-ECT ttl 1 id 0 protocol 17 offset (bytes) 0 flags [none] length: 48 10.1.1.1 > 10.1.1.255) ns3::UdpHeader (length: 28 654 > 654) ns3::aodv::TypeHeader (RREP) ns3::aodv::RrepHeader (destination: ipv4 10.1.1.1 sequence number 0 source ipv4 10.1.1.1 lifetime 2000 acknowledgment required flag 0) ns3::WifiMacTrailer ()
r 0.0683043 DsssRate11Mbps/NodeList/2/DeviceList/0/$ns3::WifiNetDevice/Phy/State/RxOk ns3::WifiMacHeader (DATA ToDS=0, FromDS=0, MoreFrag=0, Retry=0, MoreData=0 Duration/ID=0us, DA=ff:ff:ff:ff:ff:ff, SA=00:00:00:00:00:01, BSSID=00:00:00:00:00:01, FragNumber=0, SeqNumber=0) ns3::LlcSnapHeader (type 0x800) ns3::Ipv4Header (tos 0x0 DSCP Default ECN Not-ECT ttl 1 id 0 protocol 17 offset (bytes) 0 flags [none] length: 48 10.1.1.1 > 10.1.1.255) ns3::UdpHeader (length: 28 654 > 654) ns3::aodv::TypeHeader (RREP) ns3::aodv::RrepHeader (destination: ipv4 10.1.1.1 sequence number 0 source ipv4 10.1.1.1 lifetime 2000 acknowledgment required flag 0) ns3::WifiMacTrailer ()
t 0.08905 /NodeList/2/DeviceList/0/$ns3::WifiNetDevice/Phy/State/Tx DsssRate11Mbps ns3::WifiMacHeader (DATA ToDS=0, FromDS=0, MoreFrag=0, Retry=0, MoreData=0 Duration/ID=0us, DA=ff:ff:ff:ff:ff:ff, SA=00:00:00:00:00:03, BSSID=00:00:00:00:00:03, FragNumber=0, SeqNumber=0) ns3::LlcSnapHeader (type 0x800) ns3::Ipv4Header (tos 0x0 DSCP Default ECN Not-ECT ttl 1 id 0 protocol 17 offset (bytes) 0 flags [none] length: 48 10.1.1.3 > 10.1.1.255) ns3::UdpHeader (length: 28 654 > 654) ns3::aodv::TypeHeader (RREP) ns3::aodv::RrepHeader (destination: ipv4 10.1.1.3 sequence number 0 source ipv4 10.1.1.3 lifetime 2000 acknowledgment required flag 0) ns3::WifiMacTrailer ()
r 0.0893043 DsssRate11Mbps/NodeList/0/DeviceList/0/$ns3::WifiNetDevice/Phy/State/RxOk ns3::WifiMacHeader (DATA ToDS=0, FromDS=0, MoreFrag=0, Retry=0, MoreData=0 Duration/ID=0us, DA=ff:ff:ff:ff:ff:ff, SA=00:00:00:00:00:03, BSSID=00:00:00:00:00:03, FragNumber=0, SeqNumber=0) ns3::LlcSnapHeader (type 0x800) ns3::Ipv4Header (tos 0x0 DSCP Default ECN Not-ECT ttl 1 id 0 protocol 17 offset (bytes) 0 flags [none] length: 48 10.1.1.3 > 10.1.1.255) ns3::UdpHeader (length: 28 654 > 654) ns3::aodv::TypeHeader (RREP) ns3::aodv::RrepHeader (destination: ipv4 10.1.1.3 sequence number 0 source ipv4 10.1.1.3 lifetime 2000 acknowledgment required flag 0) ns3::WifiMacTrailer ()
r 0.0893043 DsssRate11Mbps/NodeList/1/DeviceList/0/$ns3::WifiNetDevice/Phy/State/RxOk ns3::WifiMacHeader (DATA ToDS=0, FromDS=0, MoreFrag=0, Retry=0, MoreData=0 Duration/ID=0us, DA=ff:ff:ff:ff:ff:ff, SA=00:00:00:00:00:03, BSSID=00:00:00:00:00:03, FragNumber=0, SeqNumber=0) ns3::LlcSnapHeader (type 0x800) ns3::Ipv4Header (tos 0x0 DSCP Default ECN Not-ECT ttl 1 id 0 protocol 17 offset (bytes) 0 flags [none] length: 48 10.1.1.3 > 10.1.1.255) ns3::UdpHeader (length: 28 654 > 654) ns3::aodv::TypeHeader (RREP) ns3::aodv::RrepHeader (destination: ipv4 10.1.1.3 sequence number 0 source ipv4 10.1.1.3 lifetime 2000 acknowledgment required flag 0) ns3::WifiMacTrailer ()
t 1.05805 /NodeList/1/DeviceList/0/$ns3::WifiNetDevice/Phy/State/Tx DsssRate11Mbps ns3::WifiMacHeader (DATA ToDS=0, FromDS=0, MoreFrag=0, Retry=0, MoreData=0 Duration/ID=0us, DA=ff:ff:ff:ff:ff:ff, SA=00:00:00:00:00:02, BSSID=00:00:00:00:00:02, FragNumber=0, SeqNumber=1) ns3::LlcSnapHeader (type 0x800) ns3::Ipv4Header (tos 0x0 DSCP Default ECN Not-ECT ttl 1 id 1 protocol 17 offset (bytes) 0 flags [none] length: 48 10.1.1.2 > 10.1.1.255) ns3::UdpHeader (length: 28 654 > 654) ns3::aodv::TypeHeader (RREP) ns3::aodv::RrepHeader (destination: ipv4 10.1.1.2 sequence number 0 source ipv4 10.1.1.2 lifetime 2000 acknowledgment required flag 0) ns3::WifiMacTrailer ()
r 1.0583 DsssRate11Mbps/NodeList/2/DeviceList/0/$ns3::WifiNetDevice/Phy/State/RxOk ns3::WifiMacHeader (DATA ToDS=0, FromDS=0, MoreFrag=0, Retry=0, MoreData=0 Duration/ID=0us, DA=ff:ff:ff:ff:ff:ff, SA=00:00:00:00:00:02, BSSID=00:00:00:00:00:02, FragNumber=0, SeqNumber=1) ns3::LlcSnapHeader (type 0x800) ns3::Ipv4Header (tos 0x0 DSCP Default ECN Not-ECT ttl 1 id 1 protocol 17 offset (bytes) 0 flags [none] length: 48 10.1.1.2 > 10.1.1.255) ns3::UdpHeader (length: 28 654 > 654) ns3::aodv::TypeHeader (RREP) ns3::aodv::RrepHeader (destination: ipv4 10.1.1.2 sequence number 0 source ipv4 10.1.1.2 lifetime 2000 acknowledgment required flag 0) ns3::WifiMacTrailer ()
t 1.07005 /NodeList/0/DeviceList/0/$ns3::WifiNetDevice/Phy/State/Tx DsssRate11Mbps ns3::WifiMacHeader (DATA ToDS=0, FromDS=0, MoreFrag=0, Retry=0, MoreData=0 Duration/ID=0us, DA=ff:ff:ff:ff:ff:ff, SA=00:00:00:00:00:01, BSSID=00:00:00:00:00:01, FragNumber=0, SeqNumber=1) ns3::LlcSnapHeader (type 0x800) ns3::Ipv4Header (tos 0x0 DSCP Default ECN Not-ECT ttl 1 id 1 protocol 17 offset (bytes) 0 flags [none] length: 48 10.1.1.1 > 10.1.1.255) ns3::UdpHeader (length: 28 654 > 654) ns3::aodv::TypeHeader (RREP) ns3::aodv::RrepHeader (destination: ipv4 10.1.1.1 sequence number 0 source ipv4 10.1.1.1 lifetime 2000 acknowledgment required flag 0) ns3::WifiMacTrailer ()
r 1.0703 DsssRate11Mbps/NodeList/2/DeviceList/0/$ns3::WifiNetDevice/Phy/State/RxOk ns3::WifiMacHeader (DATA ToDS=0, FromDS=0, MoreFrag=0, Retry=0, MoreData=0 Duration/ID=0us, DA=ff:ff:ff:ff:ff:ff, SA=00:00:00:00:00:01, BSSID=00:00:00:00:00:01, FragNumber=0, SeqNumber=1) ns3::LlcSnapHeader (type 0x800) ns3::Ipv4Header (tos 0x0 DSCP Default ECN Not-ECT ttl 1 id 1 protocol 17 offset (bytes) 0 flags [none] length: 48 10.1.1.1 > 10.1.1.255) ns3::UdpHeader (length: 28 654 > 654) ns3::aodv::TypeHeader (RREP) ns3::aodv::RrepHeader (destination: ipv4 10.1.1.1 sequence number 0 source ipv4 10.1.1.1 lifetime 2000 acknowledgment required flag 0) ns3::WifiMacTrailer ()
t 1.08905 /NodeList/2/DeviceList/0/$ns3::WifiNetDevice/Phy/State/Tx DsssRate11Mbps ns3::WifiMacHeader (DATA ToDS=0, FromDS=0, MoreFrag=0, Retry=0, MoreData=0 Duration/ID=0us, DA=ff:ff:ff:ff:ff:ff, SA=00:00:00:00:00:03, BSSID=00:00:00:00:00:03, FragNumber=0, SeqNumber=1) ns3::LlcSnapHeader (type 0x800) ns3::Ipv4Header (tos 0x0 DSCP Default ECN Not-ECT ttl 1 id 1 protocol 17 offset (bytes) 0 flags [none] length: 48 10.1.1.3 > 10.1.1.255) ns3::UdpHeader (length: 28 654 > 654) ns3::aodv::TypeHeader (RREP) ns3::aodv::RrepHeader (destination: ipv4 10.1.1.3 sequence number 0 source ipv4 10.1.1.3 lifetime 2000 acknowledgment required flag 0) ns3::WifiMacTrailer ()
r 1.0893 DsssRate11Mbps/NodeList/0/DeviceList/0/$ns3::WifiNetDevice/Phy/State/RxOk ns3::WifiMacHeader (DATA ToDS=0, FromDS=0, MoreFrag=0, Retry=0, MoreData=0 Duration/ID=0us, DA=ff:ff:ff:ff:ff:ff, SA=00:00:00:00:00:03, BSSID=00:00:00:00:00:03, FragNumber=0, SeqNumber=1) ns3::LlcSnapHeader (type 0x800) ns3::Ipv4Header (tos 0x0 DSCP Default ECN Not-ECT ttl 1 id 1 protocol 17 offset (bytes) 0 flags [none] length: 48 10.1.1.3 > 10.1.1.255) ns3::UdpHeader (length: 28 654 > 654) ns3::aodv::TypeHeader (RREP) ns3::aodv::RrepHeader (destination: ipv4 10.1.1.3 sequence number 0 source ipv4 10.1.1.3 lifetime 2000 acknowledgment required flag 0) ns3::WifiMacTrailer ()
r 1.0893 DsssRate11Mbps/NodeList/1/DeviceList/0/$ns3::WifiNetDevice/Phy/State/RxOk ns3::WifiMacHeader (DATA ToDS=0, FromDS=0, MoreFrag=0, Retry=0, MoreData=0 Duration/ID=0us, DA=ff:ff:ff:ff:ff:ff, SA=00:00:00:00:00:03, BSSID=00:00:00:00:00:03, FragNumber=0, SeqNumber=1) ns3::LlcSnapHeader (type 0x800) ns3::Ipv4Header (tos 0x0 DSCP Default ECN Not-ECT ttl 1 id 1 protocol 17 offset (bytes) 0 flags [none] length: 48 10.1.1.3 > 10.1.1.255) ns3::UdpHeader (length: 28 654 > 654) ns3::aodv::TypeHeader (RREP) ns3::aodv::RrepHeader (destination: ipv4 10.1.1.3 sequence number 0 source ipv4 10.1.1.3 lifetime 2000 acknowledgment required flag 0) ns3::WifiMacTrailer ()
t 1.25105 /NodeList/0/DeviceList/0/$ns3::WifiNetDevice/Phy/State/Tx DsssRate11Mbps ns3::WifiMacHeader (DATA ToDS=0, FromDS=0, MoreFrag=0, Retry=0, MoreData=0 Duration/ID=0us, DA=ff:ff:ff:ff:ff:ff, SA=00:00:00:00:00:01, BSSID=00:00:00:00:00:01, FragNumber=0, SeqNumber=2) ns3::LlcSnapHeader (type 0x806) ns3::ArpHeader (request source mac: 00-06-00:00:00:00:00:01 source ipv4: 10.1.1.1 dest ipv4: 10.1.1.3) ns3::WifiMacTrailer ()
r 1.25129 DsssRate11Mbps/NodeList/2/DeviceList/0/$ns3::WifiNetDevice/Phy/State/RxOk ns3::WifiMacHeader (DATA ToDS=0, FromDS=0, MoreFrag=0, Retry=0, MoreData=0 Duration/ID=0us, DA=ff:ff:ff:ff:ff:ff, SA=00:00:00:00:00:01, BSSID=00:00:00:00:00:01, FragNumber=0, SeqNumber=2) ns3::LlcSnapHeader (type 0x806) ns3::ArpHeader (request source mac: 00-06-00:00:00:00:00:01 source ipv4: 10.1.1.1 dest ipv4: 10.1.1.3) ns3::WifiMacTrailer ()
t 1.25134 /NodeList/2/DeviceList/0/$ns3::WifiNetDevice/Phy/State/Tx DsssRate11Mbps ns3::WifiMacHeader (CTL_RTS Duration/ID=675us, RA=00:00:00:00:00:01, TA=00:00:00:00:00:03) ns3::WifiMacTrailer ()
r 1.25155 DsssRate11Mbps/NodeList/0/DeviceList/0/$ns3::WifiNetDevice/Phy/State/RxOk ns3::WifiMacHeader (CTL_RTS Duration/ID=675us, RA=00:00:00:00:00:01, TA=00:00:00:00:00:03) ns3::WifiMacTrailer ()
r 1.25155 DsssRate11Mbps/NodeList/1/DeviceList/0/$ns3::WifiNetDevice/Phy/State/RxOk ns3::WifiMacHeader (CTL_RTS Duration/ID=675us, RA=00:00:00:00:00:01, TA=00:00:00:00:00:03) ns3::WifiMacTrailer ()
t 1.25156 /NodeList/0/DeviceList/0/$ns3::WifiNetDevice/Phy/State/Tx DsssRate11Mbps ns3::WifiMacHeader (CTL_CTS Duration/ID=462us, RA=00:00:00:00:00:03) ns3::WifiMacTrailer ()
r 1.25176 DsssRate11Mbps/NodeList/2/DeviceList/0/$ns3::WifiNetDevice/Phy/State/RxOk ns3::WifiMacHeader (CTL_CTS Duration/ID=462us, RA=00:00:00:00:00:03) ns3::WifiMacTrailer ()
t 1.25177 /NodeList/2/DeviceList/0/$ns3::WifiNetDevice/Phy/State/Tx DsssRate11Mbps ns3::WifiMacHeader (DATA ToDS=0, FromDS=0, MoreFrag=0, Retry=0, MoreData=0 Duration/ID=213us, DA=00:00:00:00:00:01, SA=00:00:00:00:00:03, BSSID=00:00:00:00:00:03, FragNumber=0, SeqNumber=2) ns3::LlcSnapHeader (type 0x806) ns3::ArpHeader (reply source mac: 00-06-00:00:00:00:00:03 source ipv4: 10.1.1.3 dest mac: 00-06-00:00:00:00:00:01 dest ipv4: 10.1.1.1) ns3::WifiMacTrailer ()
r 1.25201 DsssRate11Mbps/NodeList/0/DeviceList/0/$ns3::WifiNetDevice/Phy/State/RxOk ns3::WifiMacHeader (DATA ToDS=0, FromDS=0, MoreFrag=0, Retry=0, MoreData=0 Duration/ID=213us, DA=00:00:00:00:00:01, SA=00:00:00:00:00:03, BSSID=00:00:00:00:00:03, FragNumber=0, SeqNumber=2) ns3::LlcSnapHeader (type 0x806) ns3::ArpHeader (reply source mac: 00-06-00:00:00:00:00:03 source ipv4: 10.1.1.3 dest mac: 00-06-00:00:00:00:00:01 dest ipv4: 10.1.1.1) ns3::WifiMacTrailer ()
r 1.25201 DsssRate11Mbps/NodeList/1/DeviceList/0/$ns3::WifiNetDevice/Phy/State/RxOk ns3::WifiMacHeader (DATA ToDS=0, FromDS=0, MoreFrag=0, Retry=0, MoreData=0 Duration/ID=213us, DA=00:00:00:00:00:01, SA=00:00:00:00:00:03, BSSID=00:00:00:00:00:03, FragNumber=0, SeqNumber=2) ns3::LlcSnapHeader (type 0x806) ns3::ArpHeader (reply source mac: 00-06-00:00:00:00:00:03 source ipv4: 10.1.1.3 dest mac: 00-06-00:00:00:00:00:01 dest ipv4: 10.1.1.1) ns3::WifiMacTrailer ()
t 1.25202 /NodeList/0/DeviceList/0/$ns3::WifiNetDevice/Phy/State/Tx DsssRate11Mbps ns3::WifiMacHeader (CTL_ACK Duration/ID=0us, RA=00:00:00:00:00:03) ns3::WifiMacTrailer ()
r 1.25222 DsssRate11Mbps/NodeList/2/DeviceList/0/$ns3::WifiNetDevice/Phy/State/RxOk ns3::WifiMacHeader (CTL_ACK Duration/ID=0us, RA=00:00:00:00:00:03) ns3::WifiMacTrailer ()
t 1.25227 /NodeList/0/DeviceList/0/$ns3::WifiNetDevice/Phy/State/Tx DsssRate11Mbps ns3::WifiMacHeader (CTL_RTS Duration/ID=722us, RA=00:00:00:00:00:03, TA=00:00:00:00:00:01) ns3::WifiMacTrailer ()
r 1.25248 DsssRate11Mbps/NodeList/2/DeviceList/0/$ns3::WifiNetDevice/Phy/State/RxOk ns3::WifiMacHeader (CTL_RTS Duration/ID=722us, RA=00:00:00:00:00:03, TA=00:00:00:00:00:01) ns3::WifiMacTrailer ()
t 1.25249 /NodeList/2/DeviceList/0/$ns3::WifiNetDevice/Phy/State/Tx DsssRate11Mbps ns3::WifiMacHeader (CTL_CTS Duration/ID=509us, RA=00:00:00:00:00:01) ns3::WifiMacTrailer ()
r 1.25269 DsssRate11Mbps/NodeList/0/DeviceList/0/$ns3::WifiNetDevice/Phy/State/RxOk ns3::WifiMacHeader (CTL_CTS Duration/ID=509us, RA=00:00:00:00:00:01) ns3::WifiMacTrailer ()
r 1.25269 DsssRate11Mbps/NodeList/1/DeviceList/0/$ns3::WifiNetDevice/Phy/State/RxOk ns3::WifiMacHeader (CTL_CTS Duration/ID=509us, RA=00:00:00:00:00:01) ns3::WifiMacTrailer ()
t 1.2527 /NodeList/0/DeviceList/0/$ns3::WifiNetDevice/Phy/State/Tx DsssRate11Mbps ns3::WifiMacHeader (DATA ToDS=0, FromDS=0, MoreFrag=0, Retry=0, MoreData=0 Duration/ID=213us, DA=00:00:00:00:00:03, SA=00:00:00:00:00:01, BSSID=00:00:00:00:00:01, FragNumber=0, SeqNumber=3) ns3::LlcSnapHeader (type 0x800) ns3::Ipv4Header (tos 0x0 DSCP Default ECN Not-ECT ttl 64 id 0 protocol 17 offset (bytes) 0 flags [none] length: 92 10.1.1.1 > 10.1.1.3) ns3::UdpHeader (length: 72 49153 > 9) Payload (size=64) ns3::WifiMacTrailer ()
r 1.25299 DsssRate11Mbps/NodeList/2/DeviceList/0/$ns3::WifiNetDevice/Phy/State/RxOk ns3::WifiMacHeader (DATA ToDS=0, FromDS=0, MoreFrag=0, Retry=0, MoreData=0 Duration/ID=213us, DA=00:00:00:00:00:03, SA=00:00:00:00:00:01, BSSID=00:00:00:00:00:01, FragNumber=0, SeqNumber=3) ns3::LlcSnapHeader (type 0x800) ns3::Ipv4Header (tos 0x0 DSCP Default ECN Not-ECT ttl 64 id 0 protocol 17 offset (bytes) 0 flags [none] length: 92 10.1.1.1 > 10.1.1.3) ns3::UdpHeader (length: 72 49153 > 9) Payload (size=64) ns3::WifiMacTrailer ()
t 1.253 /NodeList/2/DeviceList/0/$ns3::WifiNetDevice/Phy/State/Tx DsssRate11Mbps ns3::WifiMacHeader (CTL_ACK Duration/ID=0us, RA=00:00:00:00:00:01) ns3::WifiMacTrailer ()
r 1.2532 DsssRate11Mbps/NodeList/0/DeviceList/0/$ns3::WifiNetDevice/Phy/State/RxOk ns3::WifiMacHeader (CTL_ACK Duration/ID=0us, RA=00:00:00:00:00:01) ns3::WifiMacTrailer ()
r 1.2532 DsssRate11Mbps/NodeList/1/DeviceList/0/$ns3::WifiNetDevice/Phy/State/RxOk ns3::WifiMacHeader (CTL_ACK Duration/ID=0us, RA=00:00:00:00:00:01) ns3::WifiMacTrailer ()
t 1.25405 /NodeList/1/DeviceList/0/$ns3::WifiNetDevice/Phy/State/Tx DsssRate11Mbps ns3::WifiMacHeader (DATA ToDS=0, FromDS=0, MoreFrag=0, Retry=0, MoreData=0 Duration/ID=0us, DA=ff:ff:ff:ff:ff:ff, SA=00:00:00:00:00:02, BSSID=00:00:00:00:00:02, FragNumber=0, SeqNumber=2) ns3::LlcSnapHeader (type 0x806) ns3::ArpHeader (request source mac: 00-06-00:00:00:00:00:02 source ipv4: 10.1.1.2 dest ipv4: 10.1.1.3) ns3::WifiMacTrailer ()
r 1.25429 DsssRate11Mbps/NodeList/2/DeviceList/0/$ns3::WifiNetDevice/Phy/State/RxOk ns3::WifiMacHeader (DATA ToDS=0, FromDS=0, MoreFrag=0, Retry=0, MoreData=0 Duration/ID=0us, DA=ff:ff:ff:ff:ff:ff, SA=00:00:00:00:00:02, BSSID=00:00:00:00:00:02, FragNumber=0, SeqNumber=2) ns3::LlcSnapHeader (type 0x806) ns3::ArpHeader (request source mac: 00-06-00:00:00:00:00:02 source ipv4: 10.1.1.2 dest ipv4: 10.1.1.3) ns3::WifiMacTrailer ()
t 1.25434 /NodeList/2/DeviceList/0/$ns3::WifiNetDevice/Phy/State/Tx DsssRate11Mbps ns3::WifiMacHeader (CTL_RTS Duration/ID=675us, RA=00:00:00:00:00:02, TA=00:00:00:00:00:03) ns3::WifiMacTrailer ()
r 1.25455 DsssRate11Mbps/NodeList/0/DeviceList/0/$ns3::WifiNetDevice/Phy/State/RxOk ns3::WifiMacHeader (CTL_RTS Duration/ID=675us, RA=00:00:00:00:00:02, TA=00:00:00:00:00:03) ns3::WifiMacTrailer ()
r 1.25455 DsssRate11Mbps/NodeList/1/DeviceList/0/$ns3::WifiNetDevice/Phy/State/RxOk ns3::WifiMacHeader (CTL_RTS Duration/ID=675us, RA=00:00:00:00:00:02, TA=00:00:00:00:00:03) ns3::WifiMacTrailer ()
t 1.25456 /NodeList/1/DeviceList/0/$ns3::WifiNetDevice/Phy/State/Tx DsssRate11Mbps ns3::WifiMacHeader (CTL_CTS Duration/ID=462us, RA=00:00:00:00:00:03) ns3::WifiMacTrailer ()
r 1.25476 DsssRate11Mbps/NodeList/2/DeviceList/0/$ns3::WifiNetDevice/Phy/State/RxOk ns3::WifiMacHeader (CTL_CTS Duration/ID=462us, RA=00:00:00:00:00:03) ns3::WifiMacTrailer ()
t 1.25477 /NodeList/2/DeviceList/0/$ns3::WifiNetDevice/Phy/State/Tx DsssRate11Mbps ns3::WifiMacHeader (DATA ToDS=0, FromDS=0, MoreFrag=0, Retry=0, MoreData=0 Duration/ID=213us, DA=00:00:00:00:00:02, SA=00:00:00:00:00:03, BSSID=00:00:00:00:00:03, FragNumber=0, SeqNumber=3) ns3::LlcSnapHeader (type 0x806) ns3::ArpHeader (reply source mac: 00-06-00:00:00:00:00:03 source ipv4: 10.1.1.3 dest mac: 00-06-00:00:00:00:00:02 dest ipv4: 10.1.1.2) ns3::WifiMacTrailer ()
r 1.25501 DsssRate11Mbps/NodeList/0/DeviceList/0/$ns3::WifiNetDevice/Phy/State/RxOk ns3::WifiMacHeader (DATA ToDS=0, FromDS=0, MoreFrag=0, Retry=0, MoreData=0 Duration/ID=213us, DA=00:00:00:00:00:02, SA=00:00:00:00:00:03, BSSID=00:00:00:00:00:03, FragNumber=0, SeqNumber=3) ns3::LlcSnapHeader (type 0x806) ns3::ArpHeader (reply source mac: 00-06-00:00:00:00:00:03 source ipv4: 10.1.1.3 dest mac: 00-06-00:00:00:00:00:02 dest ipv4: 10.1.1.2) ns3::WifiMacTrailer ()
r 1.25501 DsssRate11Mbps/NodeList/1/DeviceList/0/$ns3::WifiNetDevice/Phy/State/RxOk ns3::WifiMacHeader (DATA ToDS=0, FromDS=0, MoreFrag=0, Retry=0, MoreData=0 Duration/ID=213us, DA=00:00:00:00:00:02, SA=00:00:00:00:00:03, BSSID=00:00:00:00:00:03, FragNumber=0, SeqNumber=3) ns3::LlcSnapHeader (type 0x806) ns3::ArpHeader (reply source mac: 00-06-00:00:00:00:00:03 source ipv4: 10.1.1.3 dest mac: 00-06-00:00:00:00:00:02 dest ipv4: 10.1.1.2) ns3::WifiMacTrailer ()
t 1.25502 /NodeList/1/DeviceList/0/$ns3::WifiNetDevice/Phy/State/Tx DsssRate11Mbps ns3::WifiMacHeader (CTL_ACK Duration/ID=0us, RA=00:00:00:00:00:03) ns3::WifiMacTrailer ()
r 1.25522 DsssRate11Mbps/NodeList/2/DeviceList/0/$ns3::WifiNetDevice/Phy/State/RxOk ns3::WifiMacHeader (CTL_ACK Duration/ID=0us, RA=00:00:00:00:00:03) ns3::WifiMacTrailer ()
t 1.25543 /NodeList/1/DeviceList/0/$ns3::WifiNetDevice/Phy/State/Tx DsssRate11Mbps ns3::WifiMacHeader (CTL_RTS Duration/ID=722us, RA=00:00:00:00:00:03, TA=00:00:00:00:00:02) ns3::WifiMacTrailer ()
r 1.25564 DsssRate11Mbps/NodeList/2/DeviceList/0/$ns3::WifiNetDevice/Phy/State/RxOk ns3::WifiMacHeader (CTL_RTS Duration/ID=722us, RA=00:00:00:00:00:03, TA=00:00:00:00:00:02) ns3::WifiMacTrailer ()
t 1.25565 /NodeList/2/DeviceList/0/$ns3::WifiNetDevice/Phy/State/Tx DsssRate11Mbps ns3::WifiMacHeader (CTL_CTS Duration/ID=509us, RA=00:00:00:00:00:02) ns3::WifiMacTrailer ()
r 1.25585 DsssRate11Mbps/NodeList/0/DeviceList/0/$ns3::WifiNetDevice/Phy/State/RxOk ns3::WifiMacHeader (CTL_CTS Duration/ID=509us, RA=00:00:00:00:00:02) ns3::WifiMacTrailer ()
r 1.25585 DsssRate11Mbps/NodeList/1/DeviceList/0/$ns3::WifiNetDevice/Phy/State/RxOk ns3::WifiMacHeader (CTL_CTS Duration/ID=509us, RA=00:00:00:00:00:02) ns3::WifiMacTrailer ()
t 1.25586 /NodeList/1/DeviceList/0/$ns3::WifiNetDevice/Phy/State/Tx DsssRate11Mbps ns3::WifiMacHeader (DATA ToDS=0, FromDS=0, MoreFrag=0, Retry=0, MoreData=0 Duration/ID=213us, DA=00:00:00:00:00:03, SA=00:00:00:00:00:02, BSSID=00:00:00:00:00:02, FragNumber=0, SeqNumber=3) ns3::LlcSnapHeader (type 0x800) ns3::Ipv4Header (tos 0x0 DSCP Default ECN Not-ECT ttl 64 id 0 protocol 17 offset (bytes) 0 flags [none] length: 92 10.1.1.2 > 10.1.1.3) ns3::UdpHeader (length: 72 49153 > 9) Payload (size=64) ns3::WifiMacTrailer ()
r 1.25615 DsssRate11Mbps/NodeList/2/DeviceList/0/$ns3::WifiNetDevice/Phy/State/RxOk ns3::WifiMacHeader (DATA ToDS=0, FromDS=0, MoreFrag=0, Retry=0, MoreData=0 Duration/ID=213us, DA=00:00:00:00:00:03, SA=00:00:00:00:00:02, BSSID=00:00:00:00:00:02, FragNumber=0, SeqNumber=3) ns3::LlcSnapHeader (type 0x800) ns3::Ipv4Header (tos 0x0 DSCP Default ECN Not-ECT ttl 64 id 0 protocol 17 offset (bytes) 0 flags [none] length: 92 10.1.1.2 > 10.1.1.3) ns3::UdpHeader (length: 72 49153 > 9) Payload (size=64) ns3::WifiMacTrailer ()
t 1.25616 /NodeList/2/DeviceList/0/$ns3::WifiNetDevice/Phy/State/Tx DsssRate11Mbps ns3::WifiMacHeader (CTL_ACK Duration/ID=0us, RA=00:00:00:00:00:02) ns3::WifiMacTrailer ()
r 1.25636 DsssRate11Mbps/NodeList/0/DeviceList/0/$ns3::WifiNetDevice/Phy/State/RxOk ns3::WifiMacHeader (CTL_ACK Duration/ID=0us, RA=00:00:00:00:00:02) ns3::WifiMacTrailer ()
r 1.25636 DsssRate11Mbps/NodeList/1/DeviceList/0/$ns3::WifiNetDevice/Phy/State/RxOk ns3::WifiMacHeader (CTL_ACK Duration/ID=0us, RA=00:00:00:00:00:02) ns3::WifiMacTrailer ()
t 1.50005 /NodeList/0/DeviceList/0/$ns3::WifiNetDevice/Phy/State/Tx DsssRate11Mbps ns3::WifiMacHeader (CTL_RTS Duration/ID=722us, RA=00:00:00:00:00:03, TA=00:00:00:00:00:01) ns3::WifiMacTrailer ()
t 1.50005 /NodeList/1/DeviceList/0/$ns3::WifiNetDevice/Phy/State/Tx DsssRate11Mbps ns3::WifiMacHeader (CTL_RTS Duration/ID=722us, RA=00:00:00:00:00:03, TA=00:00:00:00:00:02) ns3::WifiMacTrailer ()
t 1.50093 /NodeList/1/DeviceList/0/$ns3::WifiNetDevice/Phy/State/Tx DsssRate11Mbps ns3::WifiMacHeader (CTL_RTS Duration/ID=722us, RA=00:00:00:00:00:03, TA=00:00:00:00:00:02) ns3::WifiMacTrailer ()
r 1.50114 DsssRate11Mbps/NodeList/2/DeviceList/0/$ns3::WifiNetDevice/Phy/State/RxOk ns3::WifiMacHeader (CTL_RTS Duration/ID=722us, RA=00:00:00:00:00:03, TA=00:00:00:00:00:02) ns3::WifiMacTrailer ()
t 1.50115 /NodeList/2/DeviceList/0/$ns3::WifiNetDevice/Phy/State/Tx DsssRate11Mbps ns3::WifiMacHeader (CTL_CTS Duration/ID=509us, RA=00:00:00:00:00:02) ns3::WifiMacTrailer ()
r 1.50135 DsssRate11Mbps/NodeList/0/DeviceList/0/$ns3::WifiNetDevice/Phy/State/RxOk ns3::WifiMacHeader (CTL_CTS Duration/ID=509us, RA=00:00:00:00:00:02) ns3::WifiMacTrailer ()
r 1.50135 DsssRate11Mbps/NodeList/1/DeviceList/0/$ns3::WifiNetDevice/Phy/State/RxOk ns3::WifiMacHeader (CTL_CTS Duration/ID=509us, RA=00:00:00:00:00:02) ns3::WifiMacTrailer ()
t 1.50136 /NodeList/1/DeviceList/0/$ns3::WifiNetDevice/Phy/State/Tx DsssRate11Mbps ns3::WifiMacHeader (DATA ToDS=0, FromDS=0, MoreFrag=0, Retry=0, MoreData=0 Duration/ID=213us, DA=00:00:00:00:00:03, SA=00:00:00:00:00:02, BSSID=00:00:00:00:00:02, FragNumber=0, SeqNumber=4) ns3::LlcSnapHeader (type 0x800) ns3::Ipv4Header (tos 0x0 DSCP Default ECN Not-ECT ttl 64 id 1 protocol 17 offset (bytes) 0 flags [none] length: 92 10.1.1.2 > 10.1.1.3) ns3::UdpHeader (length: 72 49153 > 9) Payload (size=64) ns3::WifiMacTrailer ()
r 1.50165 DsssRate11Mbps/NodeList/2/DeviceList/0/$ns3::WifiNetDevice/Phy/State/RxOk ns3::WifiMacHeader (DATA ToDS=0, FromDS=0, MoreFrag=0, Retry=0, MoreData=0 Duration/ID=213us, DA=00:00:00:00:00:03, SA=00:00:00:00:00:02, BSSID=00:00:00:00:00:02, FragNumber=0, SeqNumber=4) ns3::LlcSnapHeader (type 0x800) ns3::Ipv4Header (tos 0x0 DSCP Default ECN Not-ECT ttl 64 id 1 protocol 17 offset (bytes) 0 flags [none] length: 92 10.1.1.2 > 10.1.1.3) ns3::UdpHeader (length: 72 49153 > 9) Payload (size=64) ns3::WifiMacTrailer ()
t 1.50166 /NodeList/2/DeviceList/0/$ns3::WifiNetDevice/Phy/State/Tx DsssRate11Mbps ns3::WifiMacHeader (CTL_ACK Duration/ID=0us, RA=00:00:00:00:00:02) ns3::WifiMacTrailer ()
r 1.50186 DsssRate11Mbps/NodeList/0/DeviceList/0/$ns3::WifiNetDevice/Phy/State/RxOk ns3::WifiMacHeader (CTL_ACK Duration/ID=0us, RA=00:00:00:00:00:02) ns3::WifiMacTrailer ()
r 1.50186 DsssRate11Mbps/NodeList/1/DeviceList/0/$ns3::WifiNetDevice/Phy/State/RxOk ns3::WifiMacHeader (CTL_ACK Duration/ID=0us, RA=00:00:00:00:00:02) ns3::WifiMacTrailer ()
t 1.50245 /NodeList/0/DeviceList/0/$ns3::WifiNetDevice/Phy/State/Tx DsssRate11Mbps ns3::WifiMacHeader (CTL_RTS Duration/ID=722us, RA=00:00:00:00:00:03, TA=00:00:00:00:00:01) ns3::WifiMacTrailer ()
r 1.50266 DsssRate11Mbps/NodeList/2/DeviceList/0/$ns3::WifiNetDevice/Phy/State/RxOk ns3::WifiMacHeader (CTL_RTS Duration/ID=722us, RA=00:00:00:00:00:03, TA=00:00:00:00:00:01) ns3::WifiMacTrailer ()
t 1.50267 /NodeList/2/DeviceList/0/$ns3::WifiNetDevice/Phy/State/Tx DsssRate11Mbps ns3::WifiMacHeader (CTL_CTS Duration/ID=509us, RA=00:00:00:00:00:01) ns3::WifiMacTrailer ()
r 1.50287 DsssRate11Mbps/NodeList/0/DeviceList/0/$ns3::WifiNetDevice/Phy/State/RxOk ns3::WifiMacHeader (CTL_CTS Duration/ID=509us, RA=00:00:00:00:00:01) ns3::WifiMacTrailer ()
r 1.50287 DsssRate11Mbps/NodeList/1/DeviceList/0/$ns3::WifiNetDevice/Phy/State/RxOk ns3::WifiMacHeader (CTL_CTS Duration/ID=509us, RA=00:00:00:00:00:01) ns3::WifiMacTrailer ()
t 1.50288 /NodeList/0/DeviceList/0/$ns3::WifiNetDevice/Phy/State/Tx DsssRate11Mbps ns3::WifiMacHeader (DATA ToDS=0, FromDS=0, MoreFrag=0, Retry=0, MoreData=0 Duration/ID=213us, DA=00:00:00:00:00:03, SA=00:00:00:00:00:01, BSSID=00:00:00:00:00:01, FragNumber=0, SeqNumber=4) ns3::LlcSnapHeader (type 0x800) ns3::Ipv4Header (tos 0x0 DSCP Default ECN Not-ECT ttl 64 id 1 protocol 17 offset (bytes) 0 flags [none] length: 92 10.1.1.1 > 10.1.1.3) ns3::UdpHeader (length: 72 49153 > 9) Payload (size=64) ns3::WifiMacTrailer ()
r 1.50317 DsssRate11Mbps/NodeList/2/DeviceList/0/$ns3::WifiNetDevice/Phy/State/RxOk ns3::WifiMacHeader (DATA ToDS=0, FromDS=0, MoreFrag=0, Retry=0, MoreData=0 Duration/ID=213us, DA=00:00:00:00:00:03, SA=00:00:00:00:00:01, BSSID=00:00:00:00:00:01, FragNumber=0, SeqNumber=4) ns3::LlcSnapHeader (type 0x800) ns3::Ipv4Header (tos 0x0 DSCP Default ECN Not-ECT ttl 64 id 1 protocol 17 offset (bytes) 0 flags [none] length: 92 10.1.1.1 > 10.1.1.3) ns3::UdpHeader (length: 72 49153 > 9) Payload (size=64) ns3::WifiMacTrailer ()
t 1.50318 /NodeList/2/DeviceList/0/$ns3::WifiNetDevice/Phy/State/Tx DsssRate11Mbps ns3::WifiMacHeader (CTL_ACK Duration/ID=0us, RA=00:00:00:00:00:01) ns3::WifiMacTrailer ()
r 1.50338 DsssRate11Mbps/NodeList/0/DeviceList/0/$ns3::WifiNetDevice/Phy/State/RxOk ns3::WifiMacHeader (CTL_ACK Duration/ID=0us, RA=00:00:00:00:00:01) ns3::WifiMacTrailer ()
r 1.50338 DsssRate11Mbps/NodeList/1/DeviceList/0/$ns3::WifiNetDevice/Phy/State/RxOk ns3::WifiMacHeader (CTL_ACK Duration/ID=0us, RA=00:00:00:00:00:01) ns3::WifiMacTrailer ()
t 1.75005 /NodeList/0/DeviceList/0/$ns3::WifiNetDevice/Phy/State/Tx DsssRate11Mbps ns3::WifiMacHeader (CTL_RTS Duration/ID=722us, RA=00:00:00:00:00:03, TA=00:00:00:00:00:01) ns3::WifiMacTrailer ()
t 1.75005 /NodeList/1/DeviceList/0/$ns3::WifiNetDevice/Phy/State/Tx DsssRate11Mbps ns3::WifiMacHeader (CTL_RTS Duration/ID=722us, RA=00:00:00:00:00:03, TA=00:00:00:00:00:02) ns3::WifiMacTrailer ()
t 1.75131 /NodeList/0/DeviceList/0/$ns3::WifiNetDevice/Phy/State/Tx DsssRate11Mbps ns3::WifiMacHeader (CTL_RTS Duration/ID=722us, RA=00:00:00:00:00:03, TA=00:00:00:00:00:01) ns3::WifiMacTrailer ()
r 1.75152 DsssRate11Mbps/NodeList/2/DeviceList/0/$ns3::WifiNetDevice/Phy/State/RxOk ns3::WifiMacHeader (CTL_RTS Duration/ID=722us, RA=00:00:00:00:00:03, TA=00:00:00:00:00:01) ns3::WifiMacTrailer ()
t 1.75153 /NodeList/2/DeviceList/0/$ns3::WifiNetDevice/Phy/State/Tx DsssRate11Mbps ns3::WifiMacHeader (CTL_CTS Duration/ID=509us, RA=00:00:00:00:00:01) ns3::WifiMacTrailer ()
r 1.75173 DsssRate11Mbps/NodeList/0/DeviceList/0/$ns3::WifiNetDevice/Phy/State/RxOk ns3::WifiMacHeader (CTL_CTS Duration/ID=509us, RA=00:00:00:00:00:01) ns3::WifiMacTrailer ()
r 1.75173 DsssRate11Mbps/NodeList/1/DeviceList/0/$ns3::WifiNetDevice/Phy/State/RxOk ns3::WifiMacHeader (CTL_CTS Duration/ID=509us, RA=00:00:00:00:00:01) ns3::WifiMacTrailer ()
t 1.75174 /NodeList/0/DeviceList/0/$ns3::WifiNetDevice/Phy/State/Tx DsssRate11Mbps ns3::WifiMacHeader (DATA ToDS=0, FromDS=0, MoreFrag=0, Retry=0, MoreData=0 Duration/ID=213us, DA=00:00:00:00:00:03, SA=00:00:00:00:00:01, BSSID=00:00:00:00:00:01, FragNumber=0, SeqNumber=5) ns3::LlcSnapHeader (type 0x800) ns3::Ipv4Header (tos 0x0 DSCP Default ECN Not-ECT ttl 64 id 2 protocol 17 offset (bytes) 0 flags [none] length: 92 10.1.1.1 > 10.1.1.3) ns3::UdpHeader (length: 72 49153 > 9) Payload (size=64) ns3::WifiMacTrailer ()
r 1.75203 DsssRate11Mbps/NodeList/2/DeviceList/0/$ns3::WifiNetDevice/Phy/State/RxOk ns3::WifiMacHeader (DATA ToDS=0, FromDS=0, MoreFrag=0, Retry=0, MoreData=0 Duration/ID=213us, DA=00:00:00:00:00:03, SA=00:00:00:00:00:01, BSSID=00:00:00:00:00:01, FragNumber=0, SeqNumber=5) ns3::LlcSnapHeader (type 0x800) ns3::Ipv4Header (tos 0x0 DSCP Default ECN Not-ECT ttl 64 id 2 protocol 17 offset (bytes) 0 flags [none] length: 92 10.1.1.1 > 10.1.1.3) ns3::UdpHeader (length: 72 49153 > 9) Payload (size=64) ns3::WifiMacTrailer ()
t 1.75204 /NodeList/2/DeviceList/0/$ns3::WifiNetDevice/Phy/State/Tx DsssRate11Mbps ns3::WifiMacHeader (CTL_ACK Duration/ID=0us, RA=00:00:00:00:00:01) ns3::WifiMacTrailer ()
r 1.75224 DsssRate11Mbps/NodeList/0/DeviceList/0/$ns3::WifiNetDevice/Phy/State/RxOk ns3::WifiMacHeader (CTL_ACK Duration/ID=0us, RA=00:00:00:00:00:01) ns3::WifiMacTrailer ()
r 1.75224 DsssRate11Mbps/NodeList/1/DeviceList/0/$ns3::WifiNetDevice/Phy/State/RxOk ns3::WifiMacHeader (CTL_ACK Duration/ID=0us, RA=00:00:00:00:00:01) ns3::WifiMacTrailer ()
t 1.75239 /NodeList/1/DeviceList/0/$ns3::WifiNetDevice/Phy/State/Tx DsssRate11Mbps ns3::WifiMacHeader (CTL_RTS Duration/ID=722us, RA=00:00:00:00:00:03, TA=00:00:00:00:00:02) ns3::WifiMacTrailer ()