t 0.01505 /NodeList/3/DeviceList/0/$ns3::WifiNetDevice/Phy/State/Tx DsssRate11Mbps ns3::WifiMacHeader (DATA ToDS=0, FromDS=0, MoreFrag=0, Retry=0, MoreData=0 Duration/ID=0us, DA=ff:ff:ff:ff:ff:ff, SA=00:00:00:00:00:04, BSSID=00:00:00:00:00:04, FragNumber=0, SeqNumber=0) ns3::LlcSnapHeader (type 0x800) ns3::Ipv4Header (tos 0x0 DSCP Default ECN Not-ECT ttl 1 id 0 protocol 17 offset (bytes) 0 flags [none] length: 48 10.1.1.4 > 10.1.1.255) ns3::UdpHeader (length: 28 654 > 654) ns3::aodv::TypeHeader (RREP) ns3::aodv::RrepHeader (destination: ipv4 10.1.1.4 sequence number 0 source ipv4 10.1.1.4 lifetime 2000 acknowledgment required flag 0) ns3::WifiMacTrailer ()
r 0.0153042 DsssRate11Mbps/NodeList/2/DeviceList/0/$ns3::WifiNetDevice/Phy/State/RxOk ns3::WifiMacHeader (DATA ToDS=0, FromDS=0, MoreFrag=0, Retry=0, MoreData=0 Duration/ID=0us, DA=ff:ff:ff:ff:ff:ff, SA=00:00:00:00:00:04, BSSID=00:00:00:00:00:04, FragNumber=0, SeqNumber=0) ns3::LlcSnapHeader (type 0x800) ns3::Ipv4Header (tos 0x0 DSCP Default ECN Not-ECT ttl 1 id 0 protocol 17 offset (bytes) 0 flags [none] length: 48 10.1.1.4 > 10.1.1.255) ns3::UdpHeader (length: 28 654 > 654) ns3::aodv::TypeHeader (RREP) ns3::aodv::RrepHeader (destination: ipv4 10.1.1.4 sequence number 0 source ipv4 10.1.1.4 lifetime 2000 acknowledgment required flag 0) ns3::WifiMacTrailer ()
t 0.05805 /NodeList/1/DeviceList/0/$ns3::WifiNetDevice/Phy/State/Tx DsssRate11Mbps ns3::WifiMacHeader (DATA ToDS=0, FromDS=0, MoreFrag=0, Retry=0, MoreData=0 Duration/ID=0us, DA=ff:ff:ff:ff:ff:ff, SA=00:00:00:00:00:02, BSSID=00:00:00:00:00:02, FragNumber=0, SeqNumber=0) ns3::LlcSnapHeader (type 0x800) ns3::Ipv4Header (tos 0x0 DSCP Default ECN Not-ECT ttl 1 id 0 protocol 17 offset (bytes) 0 flags [none] length: 48 10.1.1.2 > 10.1.1.255) ns3::UdpHeader (length: 28 654 > 654) ns3::aodv::TypeHeader (RREP) ns3::aodv::RrepHeader (destination: ipv4 10.1.1.2 sequence number 0 source ipv4 10.1.1.2 lifetime 2000 acknowledgment required flag 0) ns3::WifiMacTrailer ()
r 0.0583042 DsssRate11Mbps/NodeList/0/DeviceList/0/$ns3::WifiNetDevice/Phy/State/RxOk ns3::WifiMacHeader (DATA ToDS=0, FromDS=0, MoreFrag=0, Retry=0, MoreData=0 Duration/ID=0us, DA=ff:ff:ff:ff:ff:ff, SA=00:00:00:00:00:02, BSSID=00:00:00:00:00:02, FragNumber=0, SeqNumber=0) ns3::LlcSnapHeader (type 0x800) ns3::Ipv4Header (tos 0x0 DSCP Default ECN Not-ECT ttl 1 id 0 protocol 17 offset (bytes) 0 flags [none] length: 48 10.1.1.2 > 10.1.1.255) ns3::UdpHeader (length: 28 654 > 654) ns3::aodv::TypeHeader (RREP) ns3::aodv::RrepHeader (destination: ipv4 10.1.1.2 sequence number 0 source ipv4 10.1.1.2 lifetime 2000 acknowledgment required flag 0) ns3::WifiMacTrailer ()
r 0.0583043 DsssRate11Mbps/NodeList/2/DeviceList/0/$ns3::WifiNetDevice/Phy/State/RxOk ns3::WifiMacHeader (DATA ToDS=0, FromDS=0, MoreFrag=0, Retry=0, MoreData=0 Duration/ID=0us, DA=ff:ff:ff:ff:ff:ff, SA=00:00:00:00:00:02, BSSID=00:00:00:00:00:02, FragNumber=0, SeqNumber=0) ns3::LlcSnapHeader (type 0x800) ns3::Ipv4Header (tos 0x0 DSCP Default ECN Not-ECT ttl 1 id 0 protocol 17 offset (bytes) 0 flags [none] length: 48 10.1.1.2 > 10.1.1.255) ns3::UdpHeader (length: 28 654 > 654) ns3::aodv::TypeHeader (RREP) ns3::aodv::RrepHeader (destination: ipv4 10.1.1.2 sequence number 0 source ipv4 10.1.1.2 lifetime 2000 acknowledgment required flag 0) ns3::WifiMacTrailer ()
t 0.08605 /NodeList/0/DeviceList/0/$ns3::WifiNetDevice/Phy/State/Tx DsssRate11Mbps ns3::WifiMacHeader (DATA ToDS=0, FromDS=0, MoreFrag=0, Retry=0, MoreData=0 Duration/ID=0us, DA=ff:ff:ff:ff:ff:ff, SA=00:00:00:00:00:01, BSSID=00:00:00:00:00:01, FragNumber=0, SeqNumber=0) ns3::LlcSnapHeader (type 0x800) ns3::Ipv4Header (tos 0x0 DSCP Default ECN Not-ECT ttl 1 id 0 protocol 17 offset (bytes) 0 flags [none] length: 48 10.1.1.1 > 10.1.1.255) ns3::UdpHeader (length: 28 654 > 654) ns3::aodv::TypeHeader (RREP) ns3::aodv::RrepHeader (destination: ipv4 10.1.1.1 sequence number 0 source ipv4 10.1.1.1 lifetime 2000 acknowledgment required flag 0) ns3::WifiMacTrailer ()
r 0.0863042 DsssRate11Mbps/NodeList/1/DeviceList/0/$ns3::WifiNetDevice/Phy/State/RxOk ns3::WifiMacHeader (DATA ToDS=0, FromDS=0, MoreFrag=0, Retry=0, MoreData=0 Duration/ID=0us, DA=ff:ff:ff:ff:ff:ff, SA=00:00:00:00:00:01, BSSID=00:00:00:00:00:01, FragNumber=0, SeqNumber=0) ns3::LlcSnapHeader (type 0x800) ns3::Ipv4Header (tos 0x0 DSCP Default ECN Not-ECT ttl 1 id 0 protocol 17 offset (bytes) 0 flags [none] length: 48 10.1.1.1 > 10.1.1.255) ns3::UdpHeader (length: 28 654 > 654) ns3::aodv::TypeHeader (RREP) ns3::aodv::RrepHeader (destination: ipv4 10.1.1.1 sequence number 0 source ipv4 10.1.1.1 lifetime 2000 acknowledgment required flag 0) ns3::WifiMacTrailer ()
t 0.10105 /NodeList/2/DeviceList/0/$ns3::WifiNetDevice/Phy/State/Tx DsssRate11Mbps ns3::WifiMacHeader (DATA ToDS=0, FromDS=0, MoreFrag=0, Retry=0, MoreData=0 Duration/ID=0us, DA=ff:ff:ff:ff:ff:ff, SA=00:00:00:00:00:03, BSSID=00:00:00:00:00:03, FragNumber=0, SeqNumber=0) ns3::LlcSnapHeader (type 0x800) ns3::Ipv4Header (tos 0x0 DSCP Default ECN Not-ECT ttl 1 id 0 protocol 17 offset (bytes) 0 flags [none] length: 48 10.1.1.3 > 10.1.1.255) ns3::UdpHeader (length: 28 654 > 654) ns3::aodv::TypeHeader (RREP) ns3::aodv::RrepHeader (destination: ipv4 10.1.1.3 sequence number 0 source ipv4 10.1.1.3 lifetime 2000 acknowledgment required flag 0) ns3::WifiMacTrailer ()
r 0.101304 DsssRate11Mbps/NodeList/3/DeviceList/0/$ns3::WifiNetDevice/Phy/State/RxOk ns3::WifiMacHeader (DATA ToDS=0, FromDS=0, MoreFrag=0, Retry=0, MoreData=0 Duration/ID=0us, DA=ff:ff:ff:ff:ff:ff, SA=00:00:00:00:00:03, BSSID=00:00:00:00:00:03, FragNumber=0, SeqNumber=0) ns3::LlcSnapHeader (type 0x800) ns3::Ipv4Header (tos 0x0 DSCP Default ECN Not-ECT ttl 1 id 0 protocol 17 offset (bytes) 0 flags [none] length: 48 10.1.1.3 > 10.1.1.255) ns3::UdpHeader (length: 28 654 > 654) ns3::aodv::TypeHeader (RREP) ns3::aodv::RrepHeader (destination: ipv4 10.1.1.3 sequence number 0 source ipv4 10.1.1.3 lifetime 2000 acknowledgment required flag 0) ns3::WifiMacTrailer ()
r 0.101304 DsssRate11Mbps/NodeList/1/DeviceList/0/$ns3::WifiNetDevice/Phy/State/RxOk ns3::WifiMacHeader (DATA ToDS=0, FromDS=0, MoreFrag=0, Retry=0, MoreData=0 Duration/ID=0us, DA=ff:ff:ff:ff:ff:ff, SA=00:00:00:00:00:03, BSSID=00:00:00:00:00:03, FragNumber=0, SeqNumber=0) ns3::LlcSnapHeader (type 0x800) ns3::Ipv4Header (tos 0x0 DSCP Default ECN Not-ECT ttl 1 id 0 protocol 17 offset (bytes) 0 flags [none] length: 48 10.1.1.3 > 10.1.1.255) ns3::UdpHeader (length: 28 654 > 654) ns3::aodv::TypeHeader (RREP) ns3::aodv::RrepHeader (destination: ipv4 10.1.1.3 sequence number 0 source ipv4 10.1.1.3 lifetime 2000 acknowledgment required flag 0) ns3::WifiMacTrailer ()
t 1.01005 /NodeList/3/DeviceList/0/$ns3::WifiNetDevice/Phy/State/Tx DsssRate11Mbps ns3::WifiMacHeader (DATA ToDS=0, FromDS=0, MoreFrag=0, Retry=0, MoreData=0 Duration/ID=0us, DA=ff:ff:ff:ff:ff:ff, SA=00:00:00:00:00:04, BSSID=00:00:00:00:00:04, FragNumber=0, SeqNumber=1) ns3::LlcSnapHeader (type 0x800) ns3::Ipv4Header (tos 0x0 DSCP Default ECN Not-ECT ttl 1 id 1 protocol 17 offset (bytes) 0 flags [none] length: 48 10.1.1.4 > 10.1.1.255) ns3::UdpHeader (length: 28 654 > 654) ns3::aodv::TypeHeader (RREP) ns3::aodv::RrepHeader (destination: ipv4 10.1.1.4 sequence number 0 source ipv4 10.1.1.4 lifetime 2000 acknowledgment required flag 0) ns3::WifiMacTrailer ()
r 1.0103 DsssRate11Mbps/NodeList/2/DeviceList/0/$ns3::WifiNetDevice/Phy/State/RxOk ns3::WifiMacHeader (DATA ToDS=0, FromDS=0, MoreFrag=0, Retry=0, MoreData=0 Duration/ID=0us, DA=ff:ff:ff:ff:ff:ff, SA=00:00:00:00:00:04, BSSID=00:00:00:00:00:04, FragNumber=0, SeqNumber=1) ns3::LlcSnapHeader (type 0x800) ns3::Ipv4Header (tos 0x0 DSCP Default ECN Not-ECT ttl 1 id 1 protocol 17 offset (bytes) 0 flags [none] length: 48 10.1.1.4 > 10.1.1.255) ns3::UdpHeader (length: 28 654 > 654) ns3::aodv::TypeHeader (RREP) ns3::aodv::RrepHeader (destination: ipv4 10.1.1.4 sequence number 0 source ipv4 10.1.1.4 lifetime 2000 acknowledgment required flag 0) ns3::WifiMacTrailer ()
t 1.05905 /NodeList/1/DeviceList/0/$ns3::WifiNetDevice/Phy/State/Tx DsssRate11Mbps ns3::WifiMacHeader (DATA ToDS=0, FromDS=0, MoreFrag=0, Retry=0, MoreData=0 Duration/ID=0us, DA=ff:ff:ff:ff:ff:ff, SA=00:00:00:00:00:02, BSSID=00:00:00:00:00:02, FragNumber=0, SeqNumber=1) ns3::LlcSnapHeader (type 0x800) ns3::Ipv4Header (tos 0x0 DSCP Default ECN Not-ECT ttl 1 id 1 protocol 17 offset (bytes) 0 flags [none] length: 48 10.1.1.2 > 10.1.1.255) ns3::UdpHeader (length: 28 654 > 654) ns3::aodv::TypeHeader (RREP) ns3::aodv::RrepHeader (destination: ipv4 10.1.1.2 sequence number 0 source ipv4 10.1.1.2 lifetime 2000 acknowledgment required flag 0) ns3::WifiMacTrailer ()
r 1.0593 DsssRate11Mbps/NodeList/0/DeviceList/0/$ns3::WifiNetDevice/Phy/State/RxOk ns3::WifiMacHeader (DATA ToDS=0, FromDS=0, MoreFrag=0, Retry=0, MoreData=0 Duration/ID=0us, DA=ff:ff:ff:ff:ff:ff, SA=00:00:00:00:00:02, BSSID=00:00:00:00:00:02, FragNumber=0, SeqNumber=1) ns3::LlcSnapHeader (type 0x800) ns3::Ipv4Header (tos 0x0 DSCP Default ECN Not-ECT ttl 1 id 1 protocol 17 offset (bytes) 0 flags [none] length: 48 10.1.1.2 > 10.1.1.255) ns3::UdpHeader (length: 28 654 > 654) ns3::aodv::TypeHeader (RREP) ns3::aodv::RrepHeader (destination: ipv4 10.1.1.2 sequence number 0 source ipv4 10.1.1.2 lifetime 2000 acknowledgment required flag 0) ns3::WifiMacTrailer ()
r 1.0593 DsssRate11Mbps/NodeList/2/DeviceList/0/$ns3::WifiNetDevice/Phy/State/RxOk ns3::WifiMacHeader (DATA ToDS=0, FromDS=0, MoreFrag=0, Retry=0, MoreData=0 Duration/ID=0us, DA=ff:ff:ff:ff:ff:ff, SA=00:00:00:00:00:02, BSSID=00:00:00:00:00:02, FragNumber=0, SeqNumber=1) ns3::LlcSnapHeader (type 0x800) ns3::Ipv4Header (tos 0x0 DSCP Default ECN Not-ECT ttl 1 id 1 protocol 17 offset (bytes) 0 flags [none] length: 48 10.1.1.2 > 10.1.1.255) ns3::UdpHeader (length: 28 654 > 654) ns3::aodv::TypeHeader (RREP) ns3::aodv::RrepHeader (destination: ipv4 10.1.1.2 sequence number 0 source ipv4 10.1.1.2 lifetime 2000 acknowledgment required flag 0) ns3::WifiMacTrailer ()
t 1.08105 /NodeList/0/DeviceList/0/$ns3::WifiNetDevice/Phy/State/Tx DsssRate11Mbps ns3::WifiMacHeader (DATA ToDS=0, FromDS=0, MoreFrag=0, Retry=0, MoreData=0 Duration/ID=0us, DA=ff:ff:ff:ff:ff:ff, SA=00:00:00:00:00:01, BSSID=00:00:00:00:00:01, FragNumber=0, SeqNumber=1) ns3::LlcSnapHeader (type 0x800) ns3::Ipv4Header (tos 0x0 DSCP Default ECN Not-ECT ttl 1 id 1 protocol 17 offset (bytes) 0 flags [none] length: 48 10.1.1.1 > 10.1.1.255) ns3::UdpHeader (length: 28 654 > 654) ns3::aodv::TypeHeader (RREP) ns3::aodv::RrepHeader (destination: ipv4 10.1.1.1 sequence number 0 source ipv4 10.1.1.1 lifetime 2000 acknowledgment required flag 0) ns3::WifiMacTrailer ()
r 1.0813 DsssRate11Mbps/NodeList/1/DeviceList/0/$ns3::WifiNetDevice/Phy/State/RxOk ns3::WifiMacHeader (DATA ToDS=0, FromDS=0, MoreFrag=0, Retry=0, MoreData=0 Duration/ID=0us, DA=ff:ff:ff:ff:ff:ff, SA=00:00:00:00:00:01, BSSID=00:00:00:00:00:01, FragNumber=0, SeqNumber=1) ns3::LlcSnapHeader (type 0x800) ns3::Ipv4Header (tos 0x0 DSCP Default ECN Not-ECT ttl 1 id 1 protocol 17 offset (bytes) 0 flags [none] length: 48 10.1.1.1 > 10.1.1.255) ns3::UdpHeader (length: 28 654 > 654) ns3::aodv::TypeHeader (RREP) ns3::aodv::RrepHeader (destination: ipv4 10.1.1.1 sequence number 0 source ipv4 10.1.1.1 lifetime 2000 acknowledgment required flag 0) ns3::WifiMacTrailer ()
t 1.09505 /NodeList/2/DeviceList/0/$ns3::WifiNetDevice/Phy/State/Tx DsssRate11Mbps ns3::WifiMacHeader (DATA ToDS=0, FromDS=0, MoreFrag=0, Retry=0, MoreData=0 Duration/ID=0us, DA=ff:ff:ff:ff:ff:ff, SA=00:00:00:00:00:03, BSSID=00:00:00:00:00:03, FragNumber=0, SeqNumber=1) ns3::LlcSnapHeader (type 0x800) ns3::Ipv4Header (tos 0x0 DSCP Default ECN Not-ECT ttl 1 id 1 protocol 17 offset (bytes) 0 flags [none] length: 48 10.1.1.3 > 10.1.1.255) ns3::UdpHeader (length: 28 654 > 654) ns3::aodv::TypeHeader (RREP) ns3::aodv::RrepHeader (destination: ipv4 10.1.1.3 sequence number 0 source ipv4 10.1.1.3 lifetime 2000 acknowledgment required flag 0) ns3::WifiMacTrailer ()
r 1.0953 DsssRate11Mbps/NodeList/3/DeviceList/0/$ns3::WifiNetDevice/Phy/State/RxOk ns3::WifiMacHeader (DATA ToDS=0, FromDS=0, MoreFrag=0, Retry=0, MoreData=0 Duration/ID=0us, DA=ff:ff:ff:ff:ff:ff, SA=00:00:00:00:00:03, BSSID=00:00:00:00:00:03, FragNumber=0, SeqNumber=1) ns3::LlcSnapHeader (type 0x800) ns3::Ipv4Header (tos 0x0 DSCP Default ECN Not-ECT ttl 1 id 1 protocol 17 offset (bytes) 0 flags [none] length: 48 10.1.1.3 > 10.1.1.255) ns3::UdpHeader (length: 28 654 > 654) ns3::aodv::TypeHeader (RREP) ns3::aodv::RrepHeader (destination: ipv4 10.1.1.3 sequence number 0 source ipv4 10.1.1.3 lifetime 2000 acknowledgment required flag 0) ns3::WifiMacTrailer ()
r 1.0953 DsssRate11Mbps/NodeList/1/DeviceList/0/$ns3::WifiNetDevice/Phy/State/RxOk ns3::WifiMacHeader (DATA ToDS=0, FromDS=0, MoreFrag=0, Retry=0, MoreData=0 Duration/ID=0us, DA=ff:ff:ff:ff:ff:ff, SA=00:00:00:00:00:03, BSSID=00:00:00:00:00:03, FragNumber=0, SeqNumber=1) ns3::LlcSnapHeader (type 0x800) ns3::Ipv4Header (tos 0x0 DSCP Default ECN Not-ECT ttl 1 id 1 protocol 17 offset (bytes) 0 flags [none] length: 48 10.1.1.3 > 10.1.1.255) ns3::UdpHeader (length: 28 654 > 654) ns3::aodv::TypeHeader (RREP) ns3::aodv::RrepHeader (destination: ipv4 10.1.1.3 sequence number 0 source ipv4 10.1.1.3 lifetime 2000 acknowledgment required flag 0) ns3::WifiMacTrailer ()
t 1.25205 /NodeList/2/DeviceList/0/$ns3::WifiNetDevice/Phy/State/Tx DsssRate11Mbps ns3::WifiMacHeader (DATA ToDS=0, FromDS=0, MoreFrag=0, Retry=0, MoreData=0 Duration/ID=0us, DA=ff:ff:ff:ff:ff:ff, SA=00:00:00:00:00:03, BSSID=00:00:00:00:00:03, FragNumber=0, SeqNumber=2) ns3::LlcSnapHeader (type 0x806) ns3::ArpHeader (request source mac: 00-06-00:00:00:00:00:03 source ipv4: 10.1.1.3 dest ipv4: 10.1.1.4) ns3::WifiMacTrailer ()
r 1.25229 DsssRate11Mbps/NodeList/3/DeviceList/0/$ns3::WifiNetDevice/Phy/State/RxOk ns3::WifiMacHeader (DATA ToDS=0, FromDS=0, MoreFrag=0, Retry=0, MoreData=0 Duration/ID=0us, DA=ff:ff:ff:ff:ff:ff, SA=00:00:00:00:00:03, BSSID=00:00:00:00:00:03, FragNumber=0, SeqNumber=2) ns3::LlcSnapHeader (type 0x806) ns3::ArpHeader (request source mac: 00-06-00:00:00:00:00:03 source ipv4: 10.1.1.3 dest ipv4: 10.1.1.4) ns3::WifiMacTrailer ()
r 1.25229 DsssRate11Mbps/NodeList/1/DeviceList/0/$ns3::WifiNetDevice/Phy/State/RxOk ns3::WifiMacHeader (DATA ToDS=0, FromDS=0, MoreFrag=0, Retry=0, MoreData=0 Duration/ID=0us, DA=ff:ff:ff:ff:ff:ff, SA=00:00:00:00:00:03, BSSID=00:00:00:00:00:03, FragNumber=0, SeqNumber=2) ns3::LlcSnapHeader (type 0x806) ns3::ArpHeader (request source mac: 00-06-00:00:00:00:00:03 source ipv4: 10.1.1.3 dest ipv4: 10.1.1.4) ns3::WifiMacTrailer ()
t 1.25234 /NodeList/3/DeviceList/0/$ns3::WifiNetDevice/Phy/State/Tx DsssRate11Mbps ns3::WifiMacHeader (CTL_RTS Duration/ID=675us, RA=00:00:00:00:00:03, TA=00:00:00:00:00:04) ns3::WifiMacTrailer ()
r 1.25255 DsssRate11Mbps/NodeList/2/DeviceList/0/$ns3::WifiNetDevice/Phy/State/RxOk ns3::WifiMacHeader (CTL_RTS Duration/ID=675us, RA=00:00:00:00:00:03, TA=00:00:00:00:00:04) ns3::WifiMacTrailer ()
t 1.25256 /NodeList/2/DeviceList/0/$ns3::WifiNetDevice/Phy/State/Tx DsssRate11Mbps ns3::WifiMacHeader (CTL_CTS Duration/ID=462us, RA=00:00:00:00:00:04) ns3::WifiMacTrailer ()
r 1.25276 DsssRate11Mbps/NodeList/3/DeviceList/0/$ns3::WifiNetDevice/Phy/State/RxOk ns3::WifiMacHeader (CTL_CTS Duration/ID=462us, RA=00:00:00:00:00:04) ns3::WifiMacTrailer ()
r 1.25276 DsssRate11Mbps/NodeList/1/DeviceList/0/$ns3::WifiNetDevice/Phy/State/RxOk ns3::WifiMacHeader (CTL_CTS Duration/ID=462us, RA=00:00:00:00:00:04) ns3::WifiMacTrailer ()
t 1.25277 /NodeList/3/DeviceList/0/$ns3::WifiNetDevice/Phy/State/Tx DsssRate11Mbps ns3::WifiMacHeader (DATA ToDS=0, FromDS=0, MoreFrag=0, Retry=0, MoreData=0 Duration/ID=213us, DA=00:00:00:00:00:03, SA=00:00:00:00:00:04, BSSID=00:00:00:00:00:04, FragNumber=0, SeqNumber=2) ns3::LlcSnapHeader (type 0x806) ns3::ArpHeader (reply source mac: 00-06-00:00:00:00:00:04 source ipv4: 10.1.1.4 dest mac: 00-06-00:00:00:00:00:03 dest ipv4: 10.1.1.3) ns3::WifiMacTrailer ()
r 1.25301 DsssRate11Mbps/NodeList/2/DeviceList/0/$ns3::WifiNetDevice/Phy/State/RxOk ns3::WifiMacHeader (DATA ToDS=0, FromDS=0, MoreFrag=0, Retry=0, MoreData=0 Duration/ID=213us, DA=00:00:00:00:00:03, SA=00:00:00:00:00:04, BSSID=00:00:00:00:00:04, FragNumber=0, SeqNumber=2) ns3::LlcSnapHeader (type 0x806) ns3::ArpHeader (reply source mac: 00-06-00:00:00:00:00:04 source ipv4: 10.1.1.4 dest mac: 00-06-00:00:00:00:00:03 dest ipv4: 10.1.1.3) ns3::WifiMacTrailer ()
t 1.25302 /NodeList/2/DeviceList/0/$ns3::WifiNetDevice/Phy/State/Tx DsssRate11Mbps ns3::WifiMacHeader (CTL_ACK Duration/ID=0us, RA=00:00:00:00:00:04) ns3::WifiMacTrailer ()
r 1.25322 DsssRate11Mbps/NodeList/3/DeviceList/0/$ns3::WifiNetDevice/Phy/State/RxOk ns3::WifiMacHeader (CTL_ACK Duration/ID=0us, RA=00:00:00:00:00:04) ns3::WifiMacTrailer ()
r 1.25322 DsssRate11Mbps/NodeList/1/DeviceList/0/$ns3::WifiNetDevice/Phy/State/RxOk ns3::WifiMacHeader (CTL_ACK Duration/ID=0us, RA=00:00:00:00:00:04) ns3::WifiMacTrailer ()
t 1.25367 /NodeList/2/DeviceList/0/$ns3::WifiNetDevice/Phy/State/Tx DsssRate11Mbps ns3::WifiMacHeader (CTL_RTS Duration/ID=722us, RA=00:00:00:00:00:04, TA=00:00:00:00:00:03) ns3::WifiMacTrailer ()
r 1.25388 DsssRate11Mbps/NodeList/3/DeviceList/0/$ns3::WifiNetDevice/Phy/State/RxOk ns3::WifiMacHeader (CTL_RTS Duration/ID=722us, RA=00:00:00:00:00:04, TA=00:00:00:00:00:03) ns3::WifiMacTrailer ()
r 1.25388 DsssRate11Mbps/NodeList/1/DeviceList/0/$ns3::WifiNetDevice/Phy/State/RxOk ns3::WifiMacHeader (CTL_RTS Duration/ID=722us, RA=00:00:00:00:00:04, TA=00:00:00:00:00:03) ns3::WifiMacTrailer ()
t 1.25389 /NodeList/3/DeviceList/0/$ns3::WifiNetDevice/Phy/State/Tx DsssRate11Mbps ns3::WifiMacHeader (CTL_CTS Duration/ID=509us, RA=00:00:00:00:00:03) ns3::WifiMacTrailer ()
r 1.25409 DsssRate11Mbps/NodeList/2/DeviceList/0/$ns3::WifiNetDevice/Phy/State/RxOk ns3::WifiMacHeader (CTL_CTS Duration/ID=509us, RA=00:00:00:00:00:03) ns3::WifiMacTrailer ()
t 1.2541 /NodeList/2/DeviceList/0/$ns3::WifiNetDevice/Phy/State/Tx DsssRate11Mbps ns3::WifiMacHeader (DATA ToDS=0, FromDS=0, MoreFrag=0, Retry=0, MoreData=0 Duration/ID=213us, DA=00:00:00:00:00:04, SA=00:00:00:00:00:03, BSSID=00:00:00:00:00:03, FragNumber=0, SeqNumber=3) ns3::LlcSnapHeader (type 0x800) ns3::Ipv4Header (tos 0x0 DSCP Default ECN Not-ECT ttl 64 id 0 protocol 17 offset (bytes) 0 flags [none] length: 92 10.1.1.3 > 10.1.1.4) ns3::UdpHeader (length: 72 49153 > 9) Payload (size=64) ns3::WifiMacTrailer ()
r 1.25439 DsssRate11Mbps/NodeList/3/DeviceList/0/$ns3::WifiNetDevice/Phy/State/RxOk ns3::WifiMacHeader (DATA ToDS=0, FromDS=0, MoreFrag=0, Retry=0, MoreData=0 Duration/ID=213us, DA=00:00:00:00:00:04, SA=00:00:00:00:00:03, BSSID=00:00:00:00:00:03, FragNumber=0, SeqNumber=3) ns3::LlcSnapHeader (type 0x800) ns3::Ipv4Header (tos 0x0 DSCP Default ECN Not-ECT ttl 64 id 0 protocol 17 offset (bytes) 0 flags [none] length: 92 10.1.1.3 > 10.1.1.4) ns3::UdpHeader (length: 72 49153 > 9) Payload (size=64) ns3::WifiMacTrailer ()
r 1.25439 DsssRate11Mbps/NodeList/1/DeviceList/0/$ns3::WifiNetDevice/Phy/State/RxOk ns3::WifiMacHeader (DATA ToDS=0, FromDS=0, MoreFrag=0, Retry=0, MoreData=0 Duration/ID=213us, DA=00:00:00:00:00:04, SA=00:00:00:00:00:03, BSSID=00:00:00:00:00:03, FragNumber=0, SeqNumber=3) ns3::LlcSnapHeader (type 0x800) ns3::Ipv4Header (tos 0x0 DSCP Default ECN Not-ECT ttl 64 id 0 protocol 17 offset (bytes) 0 flags [none] length: 92 10.1.1.3 > 10.1.1.4) ns3::UdpHeader (length: 72 49153 > 9) Payload (size=64) ns3::WifiMacTrailer ()
t 1.2544 /NodeList/3/DeviceList/0/$ns3::WifiNetDevice/Phy/State/Tx DsssRate11Mbps ns3::WifiMacHeader (CTL_ACK Duration/ID=0us, RA=00:00:00:00:00:03) ns3::WifiMacTrailer ()
r 1.2546 DsssRate11Mbps/NodeList/2/DeviceList/0/$ns3::WifiNetDevice/Phy/State/RxOk ns3::WifiMacHeader (CTL_ACK Duration/ID=0us, RA=00:00:00:00:00:03) ns3::WifiMacTrailer ()
t 1.25605 /NodeList/1/DeviceList/0/$ns3::WifiNetDevice/Phy/State/Tx DsssRate11Mbps ns3::WifiMacHeader (DATA ToDS=0, FromDS=0, MoreFrag=0, Retry=0, MoreData=0 Duration/ID=0us, DA=ff:ff:ff:ff:ff:ff, SA=00:00:00:00:00:02, BSSID=00:00:00:00:00:02, FragNumber=0, SeqNumber=2) ns3::LlcSnapHeader (type 0x806) ns3::ArpHeader (request source mac: 00-06-00:00:00:00:00:02 source ipv4: 10.1.1.2 dest ipv4: 10.1.1.1) ns3::WifiMacTrailer ()
r 1.25629 DsssRate11Mbps/NodeList/0/DeviceList/0/$ns3::WifiNetDevice/Phy/State/RxOk ns3::WifiMacHeader (DATA ToDS=0, FromDS=0, MoreFrag=0, Retry=0, MoreData=0 Duration/ID=0us, DA=ff:ff:ff:ff:ff:ff, SA=00:00:00:00:00:02, BSSID=00:00:00:00:00:02, FragNumber=0, SeqNumber=2) ns3::LlcSnapHeader (type 0x806) ns3::ArpHeader (request source mac: 00-06-00:00:00:00:00:02 source ipv4: 10.1.1.2 dest ipv4: 10.1.1.1) ns3::WifiMacTrailer ()
r 1.25629 DsssRate11Mbps/NodeList/2/DeviceList/0/$ns3::WifiNetDevice/Phy/State/RxOk ns3::WifiMacHeader (DATA ToDS=0, FromDS=0, MoreFrag=0, Retry=0, MoreData=0 Duration/ID=0us, DA=ff:ff:ff:ff:ff:ff, SA=00:00:00:00:00:02, BSSID=00:00:00:00:00:02, FragNumber=0, SeqNumber=2) ns3::LlcSnapHeader (type 0x806) ns3::ArpHeader (request source mac: 00-06-00:00:00:00:00:02 source ipv4: 10.1.1.2 dest ipv4: 10.1.1.1) ns3::WifiMacTrailer ()
t 1.25634 /NodeList/0/DeviceList/0/$ns3::WifiNetDevice/Phy/State/Tx DsssRate11Mbps ns3::WifiMacHeader (CTL_RTS Duration/ID=675us, RA=00:00:00:00:00:02, TA=00:00:00:00:00:01) ns3::WifiMacTrailer ()
r 1.25655 DsssRate11Mbps/NodeList/1/DeviceList/0/$ns3::WifiNetDevice/Phy/State/RxOk ns3::WifiMacHeader (CTL_RTS Duration/ID=675us, RA=00:00:00:00:00:02, TA=00:00:00:00:00:01) ns3::WifiMacTrailer ()
t 1.25656 /NodeList/1/DeviceList/0/$ns3::WifiNetDevice/Phy/State/Tx DsssRate11Mbps ns3::WifiMacHeader (CTL_CTS Duration/ID=462us, RA=00:00:00:00:00:01) ns3::WifiMacTrailer ()
r 1.25676 DsssRate11Mbps/NodeList/0/DeviceList/0/$ns3::WifiNetDevice/Phy/State/RxOk ns3::WifiMacHeader (CTL_CTS Duration/ID=462us, RA=00:00:00:00:00:01) ns3::WifiMacTrailer ()
r 1.25676 DsssRate11Mbps/NodeList/2/DeviceList/0/$ns3::WifiNetDevice/Phy/State/RxOk ns3::WifiMacHeader (CTL_CTS Duration/ID=462us, RA=00:00:00:00:00:01) ns3::WifiMacTrailer ()
t 1.25677 /NodeList/0/DeviceList/0/$ns3::WifiNetDevice/Phy/State/Tx DsssRate11Mbps ns3::WifiMacHeader (DATA ToDS=0, FromDS=0, MoreFrag=0, Retry=0, MoreData=0 Duration/ID=213us, DA=00:00:00:00:00:02, SA=00:00:00:00:00:01, BSSID=00:00:00:00:00:01, FragNumber=0, SeqNumber=2) ns3::LlcSnapHeader (type 0x806) ns3::ArpHeader (reply source mac: 00-06-00:00:00:00:00:01 source ipv4: 10.1.1.1 dest mac: 00-06-00:00:00:00:00:02 dest ipv4: 10.1.1.2) ns3::WifiMacTrailer ()
r 1.25701 DsssRate11Mbps/NodeList/1/DeviceList/0/$ns3::WifiNetDevice/Phy/State/RxOk ns3::WifiMacHeader (DATA ToDS=0, FromDS=0, MoreFrag=0, Retry=0, MoreData=0 Duration/ID=213us, DA=00:00:00:00:00:02, SA=00:00:00:00:00:01, BSSID=00:00:00:00:00:01, FragNumber=0, SeqNumber=2) ns3::LlcSnapHeader (type 0x806) ns3::ArpHeader (reply source mac: 00-06-00:00:00:00:00:01 source ipv4: 10.1.1.1 dest mac: 00-06-00:00:00:00:00:02 dest ipv4: 10.1.1.2) ns3::WifiMacTrailer ()
t 1.25702 /NodeList/1/DeviceList/0/$ns3::WifiNetDevice/Phy/State/Tx DsssRate11Mbps ns3::WifiMacHeader (CTL_ACK Duration/ID=0us, RA=00:00:00:00:00:01) ns3::WifiMacTrailer ()
r 1.25722 DsssRate11Mbps/NodeList/0/DeviceList/0/$ns3::WifiNetDevice/Phy/State/RxOk ns3::WifiMacHeader (CTL_ACK Duration/ID=0us, RA=00:00:00:00:00:01) ns3::WifiMacTrailer ()
r 1.25722 DsssRate11Mbps/NodeList/2/DeviceList/0/$ns3::WifiNetDevice/Phy/State/RxOk ns3::WifiMacHeader (CTL_ACK Duration/ID=0us, RA=00:00:00:00:00:01) ns3::WifiMacTrailer ()
t 1.25743 /NodeList/1/DeviceList/0/$ns3::WifiNetDevice/Phy/State/Tx DsssRate11Mbps ns3::WifiMacHeader (CTL_RTS Duration/ID=722us, RA=00:00:00:00:00:01, TA=00:00:00:00:00:02) ns3::WifiMacTrailer ()
r 1.25764 DsssRate11Mbps/NodeList/0/DeviceList/0/$ns3::WifiNetDevice/Phy/State/RxOk ns3::WifiMacHeader (CTL_RTS Duration/ID=722us, RA=00:00:00:00:00:01, TA=00:00:00:00:00:02) ns3::WifiMacTrailer ()
r 1.25764 DsssRate11Mbps/NodeList/2/DeviceList/0/$ns3::WifiNetDevice/Phy/State/RxOk ns3::WifiMacHeader (CTL_RTS Duration/ID=722us, RA=00:00:00:00:00:01, TA=00:00:00:00:00:02) ns3::WifiMacTrailer ()
t 1.25765 /NodeList/0/DeviceList/0/$ns3::WifiNetDevice/Phy/State/Tx DsssRate11Mbps ns3::WifiMacHeader (CTL_CTS Duration/ID=509us, RA=00:00:00:00:00:02) ns3::WifiMacTrailer ()
r 1.25785 DsssRate11Mbps/NodeList/1/DeviceList/0/$ns3::WifiNetDevice/Phy/State/RxOk ns3::WifiMacHeader (CTL_CTS Duration/ID=509us, RA=00:00:00:00:00:02) ns3::WifiMacTrailer ()
t 1.25786 /NodeList/1/DeviceList/0/$ns3::WifiNetDevice/Phy/State/Tx DsssRate11Mbps ns3::WifiMacHeader (DATA ToDS=0, FromDS=0, MoreFrag=0, Retry=0, MoreData=0 Duration/ID=213us, DA=00:00:00:00:00:01, SA=00:00:00:00:00:02, BSSID=00:00:00:00:00:02, FragNumber=0, SeqNumber=3) ns3::LlcSnapHeader (type 0x800) ns3::Ipv4Header (tos 0x0 DSCP Default ECN Not-ECT ttl 64 id 0 protocol 17 offset (bytes) 0 flags [none] length: 92 10.1.1.2 > 10.1.1.1) ns3::UdpHeader (length: 72 49153 > 9) Payload (size=64) ns3::WifiMacTrailer ()
r 1.25815 DsssRate11Mbps/NodeList/0/DeviceList/0/$ns3::WifiNetDevice/Phy/State/RxOk ns3::WifiMacHeader (DATA ToDS=0, FromDS=0, MoreFrag=0, Retry=0, MoreData=0 Duration/ID=213us, DA=00:00:00:00:00:01, SA=00:00:00:00:00:02, BSSID=00:00:00:00:00:02, FragNumber=0, SeqNumber=3) ns3::LlcSnapHeader (type 0x800) ns3::Ipv4Header (tos 0x0 DSCP Default ECN Not-ECT ttl 64 id 0 protocol 17 offset (bytes) 0 flags [none] length: 92 10.1.1.2 > 10.1.1.1) ns3::UdpHeader (length: 72 49153 > 9) Payload (size=64) ns3::WifiMacTrailer ()
r 1.25815 DsssRate11Mbps/NodeList/2/DeviceList/0/$ns3::WifiNetDevice/Phy/State/RxOk ns3::WifiMacHeader (DATA ToDS=0, FromDS=0, MoreFrag=0, Retry=0, MoreData=0 Duration/ID=213us, DA=00:00:00:00:00:01, SA=00:00:00:00:00:02, BSSID=00:00:00:00:00:02, FragNumber=0, SeqNumber=3) ns3::LlcSnapHeader (type 0x800) ns3::Ipv4Header (tos 0x0 DSCP Default ECN Not-ECT ttl 64 id 0 protocol 17 offset (bytes) 0 flags [none] length: 92 10.1.1.2 > 10.1.1.1) ns3::UdpHeader (length: 72 49153 > 9) Payload (size=64) ns3::WifiMacTrailer ()
t 1.25816 /NodeList/0/DeviceList/0/$ns3::WifiNetDevice/Phy/State/Tx DsssRate11Mbps ns3::WifiMacHeader (CTL_ACK Duration/ID=0us, RA=00:00:00:00:00:02) ns3::WifiMacTrailer ()
r 1.25836 DsssRate11Mbps/NodeList/1/DeviceList/0/$ns3::WifiNetDevice/Phy/State/RxOk ns3::WifiMacHeader (CTL_ACK Duration/ID=0us, RA=00:00:00:00:00:02) ns3::WifiMacTrailer ()
t 1.50005 /NodeList/1/DeviceList/0/$ns3::WifiNetDevice/Phy/State/Tx DsssRate11Mbps ns3::WifiMacHeader (CTL_RTS Duration/ID=722us, RA=00:00:00:00:00:01, TA=00:00:00:00:00:02) ns3::WifiMacTrailer ()
t 1.50005 /NodeList/2/DeviceList/0/$ns3::WifiNetDevice/Phy/State/Tx DsssRate11Mbps ns3::WifiMacHeader (CTL_RTS Duration/ID=722us, RA=00:00:00:00:00:04, TA=00:00:00:00:00:03) ns3::WifiMacTrailer ()
r 1.50026 DsssRate11Mbps/NodeList/0/DeviceList/0/$ns3::WifiNetDevice/Phy/State/RxOk ns3::WifiMacHeader (CTL_RTS Duration/ID=722us, RA=00:00:00:00:00:01, TA=00:00:00:00:00:02) ns3::WifiMacTrailer ()
r 1.50026 DsssRate11Mbps/NodeList/3/DeviceList/0/$ns3::WifiNetDevice/Phy/State/RxOk ns3::WifiMacHeader (CTL_RTS Duration/ID=722us, RA=00:00:00:00:00:04, TA=00:00:00:00:00:03) ns3::WifiMacTrailer ()
t 1.50027 /NodeList/0/DeviceList/0/$ns3::WifiNetDevice/Phy/State/Tx DsssRate11Mbps ns3::WifiMacHeader (CTL_CTS Duration/ID=509us, RA=00:00:00:00:00:02) ns3::WifiMacTrailer ()
t 1.50027 /NodeList/3/DeviceList/0/$ns3::WifiNetDevice/Phy/State/Tx DsssRate11Mbps ns3::WifiMacHeader (CTL_CTS Duration/ID=509us, RA=00:00:00:00:00:03) ns3::WifiMacTrailer ()
r 1.50047 DsssRate11Mbps/NodeList/1/DeviceList/0/$ns3::WifiNetDevice/Phy/State/RxOk ns3::WifiMacHeader (CTL_CTS Duration/ID=509us, RA=00:00:00:00:00:02) ns3::WifiMacTrailer ()
r 1.50047 DsssRate11Mbps/NodeList/2/DeviceList/0/$ns3::WifiNetDevice/Phy/State/RxOk ns3::WifiMacHeader (CTL_CTS Duration/ID=509us, RA=00:00:00:00:00:03) ns3::WifiMacTrailer ()
t 1.50048 /NodeList/1/DeviceList/0/$ns3::WifiNetDevice/Phy/State/Tx DsssRate11Mbps ns3::WifiMacHeader (DATA ToDS=0, FromDS=0, MoreFrag=0, Retry=0, MoreData=0 Duration/ID=213us, DA=00:00:00:00:00:01, SA=00:00:00:00:00:02, BSSID=00:00:00:00:00:02, FragNumber=0, SeqNumber=4) ns3::LlcSnapHeader (type 0x800) ns3::Ipv4Header (tos 0x0 DSCP Default ECN Not-ECT ttl 64 id 1 protocol 17 offset (bytes) 0 flags [none] length: 92 10.1.1.2 > 10.1.1.1) ns3::UdpHeader (length: 72 49153 > 9) Payload (size=64) ns3::WifiMacTrailer ()
t 1.50048 /NodeList/2/DeviceList/0/$ns3::WifiNetDevice/Phy/State/Tx DsssRate11Mbps ns3::WifiMacHeader (DATA ToDS=0, FromDS=0, MoreFrag=0, Retry=0, MoreData=0 Duration/ID=213us, DA=00:00:00:00:00:04, SA=00:00:00:00:00:03, BSSID=00:00:00:00:00:03, FragNumber=0, SeqNumber=4) ns3::LlcSnapHeader (type 0x800) ns3::Ipv4Header (tos 0x0 DSCP Default ECN Not-ECT ttl 64 id 1 protocol 17 offset (bytes) 0 flags [none] length: 92 10.1.1.3 > 10.1.1.4) ns3::UdpHeader (length: 72 49153 > 9) Payload (size=64) ns3::WifiMacTrailer ()
r 1.50077 DsssRate11Mbps/NodeList/0/DeviceList/0/$ns3::WifiNetDevice/Phy/State/RxOk ns3::WifiMacHeader (DATA ToDS=0, FromDS=0, MoreFrag=0, Retry=0, MoreData=0 Duration/ID=213us, DA=00:00:00:00:00:01, SA=00:00:00:00:00:02, BSSID=00:00:00:00:00:02, FragNumber=0, SeqNumber=4) ns3::LlcSnapHeader (type 0x800) ns3::Ipv4Header (tos 0x0 DSCP Default ECN Not-ECT ttl 64 id 1 protocol 17 offset (bytes) 0 flags [none] length: 92 10.1.1.2 > 10.1.1.1) ns3::UdpHeader (length: 72 49153 > 9) Payload (size=64) ns3::WifiMacTrailer ()
r 1.50077 DsssRate11Mbps/NodeList/3/DeviceList/0/$ns3::WifiNetDevice/Phy/State/RxOk ns3::WifiMacHeader (DATA ToDS=0, FromDS=0, MoreFrag=0, Retry=0, MoreData=0 Duration/ID=213us, DA=00:00:00:00:00:04, SA=00:00:00:00:00:03, BSSID=00:00:00:00:00:03, FragNumber=0, SeqNumber=4) ns3::LlcSnapHeader (type 0x800) ns3::Ipv4Header (tos 0x0 DSCP Default ECN Not-ECT ttl 64 id 1 protocol 17 offset (bytes) 0 flags [none] length: 92 10.1.1.3 > 10.1.1.4) ns3::UdpHeader (length: 72 49153 > 9) Payload (size=64) ns3::WifiMacTrailer ()